 Entering Link 1 = C:\G09W\l1.exe PID=     28220.
  
 Copyright (c) 1988,1990,1992,1993,1995,1998,2003,2009,2013,
            Gaussian, Inc.  All Rights Reserved.
  
 This is part of the Gaussian(R) 09 program.  It is based on
 the Gaussian(R) 03 system (copyright 2003, Gaussian, Inc.),
 the Gaussian(R) 98 system (copyright 1998, Gaussian, Inc.),
 the Gaussian(R) 94 system (copyright 1995, Gaussian, Inc.),
 the Gaussian 92(TM) system (copyright 1992, Gaussian, Inc.),
 the Gaussian 90(TM) system (copyright 1990, Gaussian, Inc.),
 the Gaussian 88(TM) system (copyright 1988, Gaussian, Inc.),
 the Gaussian 86(TM) system (copyright 1986, Carnegie Mellon
 University), and the Gaussian 82(TM) system (copyright 1983,
 Carnegie Mellon University). Gaussian is a federally registered
 trademark of Gaussian, Inc.
  
 This software contains proprietary and confidential information,
 including trade secrets, belonging to Gaussian, Inc.
  
 This software is provided under written license and may be
 used, copied, transmitted, or stored only in accord with that
 written license.
  
 The following legend is applicable only to US Government
 contracts under FAR:
  
                    RESTRICTED RIGHTS LEGEND
  
 Use, reproduction and disclosure by the US Government is
 subject to restrictions as set forth in subparagraphs (a)
 and (c) of the Commercial Computer Software - Restricted
 Rights clause in FAR 52.227-19.
  
 Gaussian, Inc.
 340 Quinnipiac St., Bldg. 40, Wallingford CT 06492
  
  
 ---------------------------------------------------------------
 Warning -- This program may not be used in any manner that
 competes with the business of Gaussian, Inc. or will provide
 assistance to any competitor of Gaussian, Inc.  The licensee
 of this program is prohibited from giving any competitor of
 Gaussian, Inc. access to this program.  By using this program,
 the user acknowledges that Gaussian, Inc. is engaged in the
 business of creating and licensing software in the field of
 computational chemistry and represents and warrants to the
 licensee that it is not a competitor of Gaussian, Inc. and that
 it will not use this program in any manner prohibited above.
 ---------------------------------------------------------------
  

 Cite this work as:
 Gaussian 09, Revision D.01,
 M. J. Frisch, G. W. Trucks, H. B. Schlegel, G. E. Scuseria, 
 M. A. Robb, J. R. Cheeseman, G. Scalmani, V. Barone, B. Mennucci, 
 G. A. Petersson, H. Nakatsuji, M. Caricato, X. Li, H. P. Hratchian, 
 A. F. Izmaylov, J. Bloino, G. Zheng, J. L. Sonnenberg, M. Hada, 
 M. Ehara, K. Toyota, R. Fukuda, J. Hasegawa, M. Ishida, T. Nakajima, 
 Y. Honda, O. Kitao, H. Nakai, T. Vreven, J. A. Montgomery, Jr., 
 J. E. Peralta, F. Ogliaro, M. Bearpark, J. J. Heyd, E. Brothers, 
 K. N. Kudin, V. N. Staroverov, T. Keith, R. Kobayashi, J. Normand, 
 K. Raghavachari, A. Rendell, J. C. Burant, S. S. Iyengar, J. Tomasi, 
 M. Cossi, N. Rega, J. M. Millam, M. Klene, J. E. Knox, J. B. Cross, 
 V. Bakken, C. Adamo, J. Jaramillo, R. Gomperts, R. E. Stratmann, 
 O. Yazyev, A. J. Austin, R. Cammi, C. Pomelli, J. W. Ochterski, 
 R. L. Martin, K. Morokuma, V. G. Zakrzewski, G. A. Voth, 
 P. Salvador, J. J. Dannenberg, S. Dapprich, A. D. Daniels, 
 O. Farkas, J. B. Foresman, J. V. Ortiz, J. Cioslowski, 
 and D. J. Fox, Gaussian, Inc., Wallingford CT, 2013.
 
 ******************************************
 Gaussian 09:  EM64W-G09RevD.01 13-Apr-2013
                29-Jun-2024 
 ******************************************
 %nprocshared=15
 Will use up to   15 processors via shared memory.
 %mem=50GB
 %chk=D:\Yaroslav\pink-mystery\OS1\conf3\OS1_conf3_1097kjm_opt.chk
 ----------------------------------------------------------------------
 # opt freq wb97xd/cc-pvdz scrf=(cpcm,solvent=n,n-DiMethylFormamide) ge
 om=connectivity integral(ultrafinegrid)
 ----------------------------------------------------------------------
 1/14=-1,18=20,19=15,26=4,38=1,57=2/1,3;
 2/9=110,12=2,17=6,18=5,40=1/2;
 3/5=16,11=2,16=1,25=1,30=1,70=2101,71=1,72=148,74=-58,75=-5/1,2,3;
 4//1;
 5/5=2,38=5,53=148/2;
 6/7=2,8=2,9=2,10=2,28=1/1;
 7//1,2,3,16;
 1/14=-1,18=20,19=15,26=4/3(2);
 2/9=110/2;
 99//99;
 2/9=110/2;
 3/5=16,11=2,16=1,25=1,30=1,70=2105,71=1,72=148,74=-58,75=-5/1,2,3;
 4/5=5,16=3,69=1/1;
 5/5=2,38=5,53=148/2;
 7//1,2,3,16;
 1/14=-1,18=20,19=15,26=4/3(-5);
 2/9=110/2;
 6/7=2,8=2,9=2,10=2,19=2,28=1/1;
 99/9=1/99;
 ---------
 OS1_conf3
 ---------
 Symbolic Z-matrix:
 Charge =  0 Multiplicity = 2
 O                     1.3419    0.7837    0.5848 
 C                     2.567     0.1965    0.0691 
 C                     2.2771   -0.1964   -1.4001 
 C                     1.2992    0.4954   -2.1475 
 C                     1.0364    0.1727   -3.4809 
 C                     1.7474   -0.8482   -4.1022 
 C                     2.7206   -1.5438   -3.3913 
 C                     2.9851   -1.2206   -2.0566 
 C                     3.4916    1.4328    0.2319 
 C                     3.7989    1.9181    1.5244 
 C                     4.6173    3.0351    1.7091 
 C                     5.1391    3.705     0.6078 
 C                     4.84      3.2614   -0.6767 
 C                     4.0225    2.1421   -0.8641 
 C                     2.9381   -1.0598    0.9572 
 C                     1.8809   -1.8948    1.4802 
 C                     2.1735   -2.8315    2.5017 
 C                     1.1057   -3.5813    3.0668 
 C                    -0.2083   -3.4759    2.6215 
 C                    -0.4939   -2.6195    1.5815 
 C                     0.5315   -1.8542    1.0249 
 C                     4.3112   -1.3827    1.2646 
 C                     4.5902   -2.3242    2.2871 
 C                     5.946    -2.5721    2.6375 
 C                     7.0166   -1.9715    1.9839 
 C                     6.7612   -1.1111    0.9402 
 C                     5.4389   -0.8359    0.589 
 C                     3.5199   -3.0091    2.9344 
 C                     3.8209   -3.9653    4.056 
 C                     4.0735   -5.3442    3.7649 
 C                     4.3649   -6.2377    4.8219 
 C                     4.5942   -7.6017    4.4967 
 C                     4.5534   -8.0797    3.1879 
 C                     4.2774   -7.2052    2.1557 
 C                     4.0414   -5.8618    2.4425 
 C                     4.4054   -5.7403    6.1594 
 C                     4.7323   -6.6962    7.294 
 C                     6.1623   -7.1191    7.5076 
 C                     7.2174   -6.217     7.3094 
 C                     8.5434   -6.617     7.4953 
 C                     8.832    -7.9251    7.8765 
 C                     7.796    -8.8353    8.0694 
 C                     6.4702   -8.4358    7.8837 
 C                     3.6204   -7.1958    8.1787 
 C                     2.3525   -7.4796    7.6514 
 C                     1.3198   -7.9295    8.4784 
 C                     1.5395   -8.0963    9.8436 
 C                     2.7906   -7.811     10.3841 
 C                     3.8234   -7.3614    9.5576 
 C                     4.1526   -4.3676    6.4589 
 C                     4.1973   -3.8423    7.7783 
 C                     3.9507   -2.5       8.0622 
 C                     3.6535   -1.6328    7.0298 
 C                     3.6093   -2.1157    5.7232 
 C                     3.8563   -3.477     5.4009 
 H                     1.3184    0.5969    1.5367 
 H                     0.735     1.3056   -1.6869 
 H                     0.2766    0.7218   -4.0307 
 H                     1.5434   -1.102    -5.1388 
 H                     3.277    -2.3436   -3.8738 
 H                     3.7512   -1.7943   -1.5422 
 H                     3.4053    1.4172    2.4066 
 H                     4.844     3.3808    2.7142 
 H                     5.7734    4.5757    0.7498 
 H                     5.2392    3.7885   -1.5396 
 H                     3.8146    1.836    -1.8867 
 H                     1.2901   -4.291     3.872 
 H                    -0.9905   -4.0784    3.0741 
 H                    -1.5055   -2.5399    1.1928 
 H                     0.2431   -1.2237    0.1856 
 H                     6.1957   -3.27      3.4354 
 H                     8.0368   -2.1983    2.2792 
 H                     7.578    -0.6502    0.3916 
 H                     5.3153   -0.1855   -0.2714 
 H                     4.8103   -8.3278    5.2775 
 H                     4.7382   -9.1308    2.9851 
 H                     4.242    -7.5579    1.1287 
 H                     3.8245   -5.2098    1.5977 
 H                     7.0224   -5.1892    7.0128 
 H                     9.3497   -5.905     7.3395 
 H                     9.8637   -8.2357    8.0185 
 H                     8.0177   -9.8589    8.3599 
 H                     5.679    -9.1689    8.0251 
 H                     2.152    -7.3595    6.5895 
 H                     0.3431   -8.1469    8.0539 
 H                     0.7348   -8.4439    10.486 
 H                     2.9639   -7.933     11.4501 
 H                     4.7874   -7.13      10.0056 
 H                     4.4325   -4.4867    8.6227 
 H                     3.9921   -2.1431    9.0875 
 H                     3.4575   -0.5834    7.2311 
 H                     3.375    -1.3957    4.9411 
 

 GradGradGradGradGradGradGradGradGradGradGradGradGradGradGradGradGradGrad
 Berny optimization.
 Initialization pass.
                           ----------------------------
                           !    Initial Parameters    !
                           ! (Angstroms and Degrees)  !
 --------------------------                            --------------------------
 ! Name  Definition              Value          Derivative Info.                !
 --------------------------------------------------------------------------------
 ! R1    R(1,2)                  1.4531         estimate D2E/DX2                !
 ! R2    R(1,56)                 0.9703         estimate D2E/DX2                !
 ! R3    R(2,3)                  1.5482         estimate D2E/DX2                !
 ! R4    R(2,9)                  1.5524         estimate D2E/DX2                !
 ! R5    R(2,15)                 1.5826         estimate D2E/DX2                !
 ! R6    R(3,4)                  1.4119         estimate D2E/DX2                !
 ! R7    R(3,8)                  1.4076         estimate D2E/DX2                !
 ! R8    R(4,5)                  1.3968         estimate D2E/DX2                !
 ! R9    R(4,57)                 1.0894         estimate D2E/DX2                !
 ! R10   R(5,6)                  1.3906         estimate D2E/DX2                !
 ! R11   R(5,58)                 1.0868         estimate D2E/DX2                !
 ! R12   R(6,7)                  1.3915         estimate D2E/DX2                !
 ! R13   R(6,59)                 1.0865         estimate D2E/DX2                !
 ! R14   R(7,8)                  1.3985         estimate D2E/DX2                !
 ! R15   R(7,60)                 1.0872         estimate D2E/DX2                !
 ! R16   R(8,61)                 1.0866         estimate D2E/DX2                !
 ! R17   R(9,10)                 1.4144         estimate D2E/DX2                !
 ! R18   R(9,14)                 1.4093         estimate D2E/DX2                !
 ! R19   R(10,11)                1.397          estimate D2E/DX2                !
 ! R20   R(10,62)                1.0882         estimate D2E/DX2                !
 ! R21   R(11,12)                1.3906         estimate D2E/DX2                !
 ! R22   R(11,63)                1.0868         estimate D2E/DX2                !
 ! R23   R(12,13)                1.3915         estimate D2E/DX2                !
 ! R24   R(12,64)                1.0866         estimate D2E/DX2                !
 ! R25   R(13,14)                1.3987         estimate D2E/DX2                !
 ! R26   R(13,65)                1.0871         estimate D2E/DX2                !
 ! R27   R(14,66)                1.0875         estimate D2E/DX2                !
 ! R28   R(15,16)                1.4451         estimate D2E/DX2                !
 ! R29   R(15,22)                1.4437         estimate D2E/DX2                !
 ! R30   R(16,17)                1.4165         estimate D2E/DX2                !
 ! R31   R(16,21)                1.4247         estimate D2E/DX2                !
 ! R32   R(17,18)                1.4219         estimate D2E/DX2                !
 ! R33   R(17,28)                1.4253         estimate D2E/DX2                !
 ! R34   R(18,19)                1.3914         estimate D2E/DX2                !
 ! R35   R(18,67)                1.089          estimate D2E/DX2                !
 ! R36   R(19,20)                1.3772         estimate D2E/DX2                !
 ! R37   R(19,68)                1.0861         estimate D2E/DX2                !
 ! R38   R(20,21)                1.3953         estimate D2E/DX2                !
 ! R39   R(20,69)                1.0866         estimate D2E/DX2                !
 ! R40   R(21,70)                1.0886         estimate D2E/DX2                !
 ! R41   R(22,23)                1.4177         estimate D2E/DX2                !
 ! R42   R(22,27)                1.4238         estimate D2E/DX2                !
 ! R43   R(23,24)                1.4221         estimate D2E/DX2                !
 ! R44   R(23,28)                1.4261         estimate D2E/DX2                !
 ! R45   R(24,25)                1.3907         estimate D2E/DX2                !
 ! R46   R(24,71)                1.0891         estimate D2E/DX2                !
 ! R47   R(25,26)                1.3765         estimate D2E/DX2                !
 ! R48   R(25,72)                1.086          estimate D2E/DX2                !
 ! R49   R(26,27)                1.3955         estimate D2E/DX2                !
 ! R50   R(26,73)                1.0865         estimate D2E/DX2                !
 ! R51   R(27,74)                1.0856         estimate D2E/DX2                !
 ! R52   R(28,29)                1.5043         estimate D2E/DX2                !
 ! R53   R(29,30)                1.4318         estimate D2E/DX2                !
 ! R54   R(29,55)                1.4312         estimate D2E/DX2                !
 ! R55   R(30,31)                1.4144         estimate D2E/DX2                !
 ! R56   R(30,35)                1.4205         estimate D2E/DX2                !
 ! R57   R(31,32)                1.4209         estimate D2E/DX2                !
 ! R58   R(31,36)                1.4276         estimate D2E/DX2                !
 ! R59   R(32,33)                1.394          estimate D2E/DX2                !
 ! R60   R(32,75)                1.0879         estimate D2E/DX2                !
 ! R61   R(33,34)                1.3807         estimate D2E/DX2                !
 ! R62   R(33,76)                1.0863         estimate D2E/DX2                !
 ! R63   R(34,35)                1.3938         estimate D2E/DX2                !
 ! R64   R(34,77)                1.0865         estimate D2E/DX2                !
 ! R65   R(35,78)                1.089          estimate D2E/DX2                !
 ! R66   R(36,37)                1.5192         estimate D2E/DX2                !
 ! R67   R(36,50)                1.4276         estimate D2E/DX2                !
 ! R68   R(37,38)                1.5064         estimate D2E/DX2                !
 ! R69   R(37,44)                1.5062         estimate D2E/DX2                !
 ! R70   R(38,39)                1.4022         estimate D2E/DX2                !
 ! R71   R(38,43)                1.4035         estimate D2E/DX2                !
 ! R72   R(39,40)                1.3974         estimate D2E/DX2                !
 ! R73   R(39,79)                1.0874         estimate D2E/DX2                !
 ! R74   R(40,41)                1.3927         estimate D2E/DX2                !
 ! R75   R(40,80)                1.0869         estimate D2E/DX2                !
 ! R76   R(41,42)                1.3925         estimate D2E/DX2                !
 ! R77   R(41,81)                1.0868         estimate D2E/DX2                !
 ! R78   R(42,43)                1.3971         estimate D2E/DX2                !
 ! R79   R(42,82)                1.0869         estimate D2E/DX2                !
 ! R80   R(43,83)                1.0879         estimate D2E/DX2                !
 ! R81   R(44,45)                1.4022         estimate D2E/DX2                !
 ! R82   R(44,49)                1.4036         estimate D2E/DX2                !
 ! R83   R(45,46)                1.3974         estimate D2E/DX2                !
 ! R84   R(45,84)                1.0873         estimate D2E/DX2                !
 ! R85   R(46,47)                1.3928         estimate D2E/DX2                !
 ! R86   R(46,85)                1.0869         estimate D2E/DX2                !
 ! R87   R(47,48)                1.3924         estimate D2E/DX2                !
 ! R88   R(47,86)                1.0868         estimate D2E/DX2                !
 ! R89   R(48,49)                1.3971         estimate D2E/DX2                !
 ! R90   R(48,87)                1.0869         estimate D2E/DX2                !
 ! R91   R(49,88)                1.0879         estimate D2E/DX2                !
 ! R92   R(50,51)                1.4208         estimate D2E/DX2                !
 ! R93   R(50,55)                1.4143         estimate D2E/DX2                !
 ! R94   R(51,52)                1.394          estimate D2E/DX2                !
 ! R95   R(51,89)                1.0879         estimate D2E/DX2                !
 ! R96   R(52,53)                1.3807         estimate D2E/DX2                !
 ! R97   R(52,90)                1.0864         estimate D2E/DX2                !
 ! R98   R(53,54)                1.3937         estimate D2E/DX2                !
 ! R99   R(53,91)                1.0864         estimate D2E/DX2                !
 ! R100  R(54,55)                1.4206         estimate D2E/DX2                !
 ! R101  R(54,92)                1.0886         estimate D2E/DX2                !
 ! A1    A(2,1,56)             106.904          estimate D2E/DX2                !
 ! A2    A(1,2,3)              106.3474         estimate D2E/DX2                !
 ! A3    A(1,2,9)               98.2276         estimate D2E/DX2                !
 ! A4    A(1,2,15)             108.6211         estimate D2E/DX2                !
 ! A5    A(3,2,9)              114.4032         estimate D2E/DX2                !
 ! A6    A(3,2,15)             112.0226         estimate D2E/DX2                !
 ! A7    A(9,2,15)             115.701          estimate D2E/DX2                !
 ! A8    A(2,3,4)              120.5098         estimate D2E/DX2                !
 ! A9    A(2,3,8)              122.2136         estimate D2E/DX2                !
 ! A10   A(4,3,8)              117.2587         estimate D2E/DX2                !
 ! A11   A(3,4,5)              121.4951         estimate D2E/DX2                !
 ! A12   A(3,4,57)             119.9516         estimate D2E/DX2                !
 ! A13   A(5,4,57)             118.5519         estimate D2E/DX2                !
 ! A14   A(4,5,6)              119.9936         estimate D2E/DX2                !
 ! A15   A(4,5,58)             119.8501         estimate D2E/DX2                !
 ! A16   A(6,5,58)             120.1562         estimate D2E/DX2                !
 ! A17   A(5,6,7)              119.7565         estimate D2E/DX2                !
 ! A18   A(5,6,59)             120.1151         estimate D2E/DX2                !
 ! A19   A(7,6,59)             120.1284         estimate D2E/DX2                !
 ! A20   A(6,7,8)              120.2858         estimate D2E/DX2                !
 ! A21   A(6,7,60)             119.9285         estimate D2E/DX2                !
 ! A22   A(8,7,60)             119.7856         estimate D2E/DX2                !
 ! A23   A(3,8,7)              121.2085         estimate D2E/DX2                !
 ! A24   A(3,8,61)             121.1997         estimate D2E/DX2                !
 ! A25   A(7,8,61)             117.5899         estimate D2E/DX2                !
 ! A26   A(2,9,10)             119.9006         estimate D2E/DX2                !
 ! A27   A(2,9,14)             122.9314         estimate D2E/DX2                !
 ! A28   A(10,9,14)            117.1375         estimate D2E/DX2                !
 ! A29   A(9,10,11)            121.4965         estimate D2E/DX2                !
 ! A30   A(9,10,62)            120.2867         estimate D2E/DX2                !
 ! A31   A(11,10,62)           118.2144         estimate D2E/DX2                !
 ! A32   A(10,11,12)           120.0187         estimate D2E/DX2                !
 ! A33   A(10,11,63)           119.9215         estimate D2E/DX2                !
 ! A34   A(12,11,63)           120.0597         estimate D2E/DX2                !
 ! A35   A(11,12,13)           119.7903         estimate D2E/DX2                !
 ! A36   A(11,12,64)           120.1035         estimate D2E/DX2                !
 ! A37   A(13,12,64)           120.1052         estimate D2E/DX2                !
 ! A38   A(12,13,14)           120.2946         estimate D2E/DX2                !
 ! A39   A(12,13,65)           119.9492         estimate D2E/DX2                !
 ! A40   A(14,13,65)           119.7556         estimate D2E/DX2                !
 ! A41   A(9,14,13)            121.2485         estimate D2E/DX2                !
 ! A42   A(9,14,66)            121.1712         estimate D2E/DX2                !
 ! A43   A(13,14,66)           117.5798         estimate D2E/DX2                !
 ! A44   A(2,15,16)            119.3541         estimate D2E/DX2                !
 ! A45   A(2,15,22)            121.336          estimate D2E/DX2                !
 ! A46   A(16,15,22)           119.308          estimate D2E/DX2                !
 ! A47   A(15,16,17)           119.4691         estimate D2E/DX2                !
 ! A48   A(15,16,21)           124.1085         estimate D2E/DX2                !
 ! A49   A(17,16,21)           116.4198         estimate D2E/DX2                !
 ! A50   A(16,17,18)           118.6978         estimate D2E/DX2                !
 ! A51   A(16,17,28)           119.7652         estimate D2E/DX2                !
 ! A52   A(18,17,28)           121.536          estimate D2E/DX2                !
 ! A53   A(17,18,19)           122.8243         estimate D2E/DX2                !
 ! A54   A(17,18,67)           120.6861         estimate D2E/DX2                !
 ! A55   A(19,18,67)           116.4804         estimate D2E/DX2                !
 ! A56   A(18,19,20)           118.9886         estimate D2E/DX2                !
 ! A57   A(18,19,68)           120.3131         estimate D2E/DX2                !
 ! A58   A(20,19,68)           120.6833         estimate D2E/DX2                !
 ! A59   A(19,20,21)           119.3348         estimate D2E/DX2                !
 ! A60   A(19,20,69)           120.5807         estimate D2E/DX2                !
 ! A61   A(21,20,69)           120.0841         estimate D2E/DX2                !
 ! A62   A(16,21,20)           123.5678         estimate D2E/DX2                !
 ! A63   A(16,21,70)           120.917          estimate D2E/DX2                !
 ! A64   A(20,21,70)           115.5001         estimate D2E/DX2                !
 ! A65   A(15,22,23)           119.2948         estimate D2E/DX2                !
 ! A66   A(15,22,27)           124.4995         estimate D2E/DX2                !
 ! A67   A(23,22,27)           116.1948         estimate D2E/DX2                !
 ! A68   A(22,23,24)           118.7576         estimate D2E/DX2                !
 ! A69   A(22,23,28)           119.9101         estimate D2E/DX2                !
 ! A70   A(24,23,28)           121.3303         estimate D2E/DX2                !
 ! A71   A(23,24,25)           122.8771         estimate D2E/DX2                !
 ! A72   A(23,24,71)           120.718          estimate D2E/DX2                !
 ! A73   A(25,24,71)           116.3958         estimate D2E/DX2                !
 ! A74   A(24,25,26)           118.9106         estimate D2E/DX2                !
 ! A75   A(24,25,72)           120.3434         estimate D2E/DX2                !
 ! A76   A(26,25,72)           120.7299         estimate D2E/DX2                !
 ! A77   A(25,26,27)           119.332          estimate D2E/DX2                !
 ! A78   A(25,26,73)           120.5634         estimate D2E/DX2                !
 ! A79   A(27,26,73)           120.1044         estimate D2E/DX2                !
 ! A80   A(22,27,26)           123.7334         estimate D2E/DX2                !
 ! A81   A(22,27,74)           121.0629         estimate D2E/DX2                !
 ! A82   A(26,27,74)           115.1801         estimate D2E/DX2                !
 ! A83   A(17,28,23)           120.7525         estimate D2E/DX2                !
 ! A84   A(17,28,29)           119.641          estimate D2E/DX2                !
 ! A85   A(23,28,29)           119.5738         estimate D2E/DX2                !
 ! A86   A(28,29,30)           119.7285         estimate D2E/DX2                !
 ! A87   A(28,29,55)           119.2554         estimate D2E/DX2                !
 ! A88   A(30,29,55)           121.0153         estimate D2E/DX2                !
 ! A89   A(29,30,31)           119.5252         estimate D2E/DX2                !
 ! A90   A(29,30,35)           122.4278         estimate D2E/DX2                !
 ! A91   A(31,30,35)           118.0469         estimate D2E/DX2                !
 ! A92   A(30,31,32)           117.9465         estimate D2E/DX2                !
 ! A93   A(30,31,36)           119.0718         estimate D2E/DX2                !
 ! A94   A(32,31,36)           122.9796         estimate D2E/DX2                !
 ! A95   A(31,32,33)           122.64           estimate D2E/DX2                !
 ! A96   A(31,32,75)           120.5643         estimate D2E/DX2                !
 ! A97   A(33,32,75)           116.7954         estimate D2E/DX2                !
 ! A98   A(32,33,34)           119.3787         estimate D2E/DX2                !
 ! A99   A(32,33,76)           120.1386         estimate D2E/DX2                !
 ! A100  A(34,33,76)           120.4826         estimate D2E/DX2                !
 ! A101  A(33,34,35)           119.3724         estimate D2E/DX2                !
 ! A102  A(33,34,77)           120.5025         estimate D2E/DX2                !
 ! A103  A(35,34,77)           120.125          estimate D2E/DX2                !
 ! A104  A(30,35,34)           122.6124         estimate D2E/DX2                !
 ! A105  A(30,35,78)           120.568          estimate D2E/DX2                !
 ! A106  A(34,35,78)           116.8194         estimate D2E/DX2                !
 ! A107  A(31,36,37)           119.1171         estimate D2E/DX2                !
 ! A108  A(31,36,50)           121.7743         estimate D2E/DX2                !
 ! A109  A(37,36,50)           119.108          estimate D2E/DX2                !
 ! A110  A(36,37,38)           119.1303         estimate D2E/DX2                !
 ! A111  A(36,37,44)           119.2446         estimate D2E/DX2                !
 ! A112  A(38,37,44)           121.625          estimate D2E/DX2                !
 ! A113  A(37,38,39)           120.9048         estimate D2E/DX2                !
 ! A114  A(37,38,43)           120.6366         estimate D2E/DX2                !
 ! A115  A(39,38,43)           118.4458         estimate D2E/DX2                !
 ! A116  A(38,39,40)           120.7319         estimate D2E/DX2                !
 ! A117  A(38,39,79)           120.7771         estimate D2E/DX2                !
 ! A118  A(40,39,79)           118.4902         estimate D2E/DX2                !
 ! A119  A(39,40,41)           120.1243         estimate D2E/DX2                !
 ! A120  A(39,40,80)           119.8241         estimate D2E/DX2                !
 ! A121  A(41,40,80)           120.0515         estimate D2E/DX2                !
 ! A122  A(40,41,42)           119.8467         estimate D2E/DX2                !
 ! A123  A(40,41,81)           120.0607         estimate D2E/DX2                !
 ! A124  A(42,41,81)           120.092          estimate D2E/DX2                !
 ! A125  A(41,42,43)           120.0472         estimate D2E/DX2                !
 ! A126  A(41,42,82)           120.0576         estimate D2E/DX2                !
 ! A127  A(43,42,82)           119.8945         estimate D2E/DX2                !
 ! A128  A(38,43,42)           120.8009         estimate D2E/DX2                !
 ! A129  A(38,43,83)           120.4958         estimate D2E/DX2                !
 ! A130  A(42,43,83)           118.6995         estimate D2E/DX2                !
 ! A131  A(37,44,45)           120.915          estimate D2E/DX2                !
 ! A132  A(37,44,49)           120.6251         estimate D2E/DX2                !
 ! A133  A(45,44,49)           118.4469         estimate D2E/DX2                !
 ! A134  A(44,45,46)           120.7194         estimate D2E/DX2                !
 ! A135  A(44,45,84)           120.7734         estimate D2E/DX2                !
 ! A136  A(46,45,84)           118.5065         estimate D2E/DX2                !
 ! A137  A(45,46,47)           120.1367         estimate D2E/DX2                !
 ! A138  A(45,46,85)           119.8231         estimate D2E/DX2                !
 ! A139  A(47,46,85)           120.0401         estimate D2E/DX2                !
 ! A140  A(46,47,48)           119.8468         estimate D2E/DX2                !
 ! A141  A(46,47,86)           120.0603         estimate D2E/DX2                !
 ! A142  A(48,47,86)           120.0923         estimate D2E/DX2                !
 ! A143  A(47,48,49)           120.0345         estimate D2E/DX2                !
 ! A144  A(47,48,87)           120.0658         estimate D2E/DX2                !
 ! A145  A(49,48,87)           119.899          estimate D2E/DX2                !
 ! A146  A(44,49,48)           120.8127         estimate D2E/DX2                !
 ! A147  A(44,49,88)           120.5058         estimate D2E/DX2                !
 ! A148  A(48,49,88)           118.6776         estimate D2E/DX2                !
 ! A149  A(36,50,51)           123.0081         estimate D2E/DX2                !
 ! A150  A(36,50,55)           119.0556         estimate D2E/DX2                !
 ! A151  A(51,50,55)           117.933          estimate D2E/DX2                !
 ! A152  A(50,51,52)           122.654          estimate D2E/DX2                !
 ! A153  A(50,51,89)           120.568          estimate D2E/DX2                !
 ! A154  A(52,51,89)           116.7779         estimate D2E/DX2                !
 ! A155  A(51,52,53)           119.3807         estimate D2E/DX2                !
 ! A156  A(51,52,90)           120.1184         estimate D2E/DX2                !
 ! A157  A(53,52,90)           120.5008         estimate D2E/DX2                !
 ! A158  A(52,53,54)           119.3557         estimate D2E/DX2                !
 ! A159  A(52,53,91)           120.4653         estimate D2E/DX2                !
 ! A160  A(54,53,91)           120.1789         estimate D2E/DX2                !
 ! A161  A(53,54,55)           122.6309         estimate D2E/DX2                !
 ! A162  A(53,54,92)           116.8223         estimate D2E/DX2                !
 ! A163  A(55,54,92)           120.5467         estimate D2E/DX2                !
 ! A164  A(29,55,50)           119.5562         estimate D2E/DX2                !
 ! A165  A(29,55,54)           122.4003         estimate D2E/DX2                !
 ! A166  A(50,55,54)           118.0428         estimate D2E/DX2                !
 ! D1    D(56,1,2,3)           150.0741         estimate D2E/DX2                !
 ! D2    D(56,1,2,9)           -91.4069         estimate D2E/DX2                !
 ! D3    D(56,1,2,15)           29.331          estimate D2E/DX2                !
 ! D4    D(1,2,3,4)             26.9484         estimate D2E/DX2                !
 ! D5    D(1,2,3,8)           -154.6313         estimate D2E/DX2                !
 ! D6    D(9,2,3,4)            -80.3194         estimate D2E/DX2                !
 ! D7    D(9,2,3,8)             98.1008         estimate D2E/DX2                !
 ! D8    D(15,2,3,4)           145.4768         estimate D2E/DX2                !
 ! D9    D(15,2,3,8)           -36.103          estimate D2E/DX2                !
 ! D10   D(1,2,9,10)            65.8427         estimate D2E/DX2                !
 ! D11   D(1,2,9,14)          -112.0913         estimate D2E/DX2                !
 ! D12   D(3,2,9,10)           178.0455         estimate D2E/DX2                !
 ! D13   D(3,2,9,14)             0.1115         estimate D2E/DX2                !
 ! D14   D(15,2,9,10)          -49.4753         estimate D2E/DX2                !
 ! D15   D(15,2,9,14)          132.5907         estimate D2E/DX2                !
 ! D16   D(1,2,15,16)           36.0001         estimate D2E/DX2                !
 ! D17   D(1,2,15,22)         -143.4956         estimate D2E/DX2                !
 ! D18   D(3,2,15,16)          -81.1727         estimate D2E/DX2                !
 ! D19   D(3,2,15,22)           99.3316         estimate D2E/DX2                !
 ! D20   D(9,2,15,16)          145.2542         estimate D2E/DX2                !
 ! D21   D(9,2,15,22)          -34.2415         estimate D2E/DX2                !
 ! D22   D(2,3,4,5)            178.9338         estimate D2E/DX2                !
 ! D23   D(2,3,4,57)            -0.644          estimate D2E/DX2                !
 ! D24   D(8,3,4,5)              0.4373         estimate D2E/DX2                !
 ! D25   D(8,3,4,57)          -179.1405         estimate D2E/DX2                !
 ! D26   D(2,3,8,7)           -178.9585         estimate D2E/DX2                !
 ! D27   D(2,3,8,61)             1.5578         estimate D2E/DX2                !
 ! D28   D(4,3,8,7)             -0.4895         estimate D2E/DX2                !
 ! D29   D(4,3,8,61)          -179.9732         estimate D2E/DX2                !
 ! D30   D(3,4,5,6)             -0.1612         estimate D2E/DX2                !
 ! D31   D(3,4,5,58)           179.9084         estimate D2E/DX2                !
 ! D32   D(57,4,5,6)           179.4223         estimate D2E/DX2                !
 ! D33   D(57,4,5,58)           -0.5081         estimate D2E/DX2                !
 ! D34   D(4,5,6,7)             -0.0787         estimate D2E/DX2                !
 ! D35   D(4,5,6,59)           179.8948         estimate D2E/DX2                !
 ! D36   D(58,5,6,7)           179.8516         estimate D2E/DX2                !
 ! D37   D(58,5,6,59)           -0.175          estimate D2E/DX2                !
 ! D38   D(5,6,7,8)              0.0259         estimate D2E/DX2                !
 ! D39   D(5,6,7,60)           179.8975         estimate D2E/DX2                !
 ! D40   D(59,6,7,8)          -179.9476         estimate D2E/DX2                !
 ! D41   D(59,6,7,60)           -0.0759         estimate D2E/DX2                !
 ! D42   D(6,7,8,3)              0.2688         estimate D2E/DX2                !
 ! D43   D(6,7,8,61)           179.7706         estimate D2E/DX2                !
 ! D44   D(60,7,8,3)          -179.603          estimate D2E/DX2                !
 ! D45   D(60,7,8,61)           -0.1013         estimate D2E/DX2                !
 ! D46   D(2,9,10,11)         -179.4137         estimate D2E/DX2                !
 ! D47   D(2,9,10,62)            1.1657         estimate D2E/DX2                !
 ! D48   D(14,9,10,11)          -1.3622         estimate D2E/DX2                !
 ! D49   D(14,9,10,62)         179.2172         estimate D2E/DX2                !
 ! D50   D(2,9,14,13)          179.2485         estimate D2E/DX2                !
 ! D51   D(2,9,14,66)           -1.0193         estimate D2E/DX2                !
 ! D52   D(10,9,14,13)           1.2611         estimate D2E/DX2                !
 ! D53   D(10,9,14,66)        -179.0067         estimate D2E/DX2                !
 ! D54   D(9,10,11,12)           0.6609         estimate D2E/DX2                !
 ! D55   D(9,10,11,63)        -179.4545         estimate D2E/DX2                !
 ! D56   D(62,10,11,12)       -179.9069         estimate D2E/DX2                !
 ! D57   D(62,10,11,63)         -0.0223         estimate D2E/DX2                !
 ! D58   D(10,11,12,13)          0.1925         estimate D2E/DX2                !
 ! D59   D(10,11,12,64)        179.8189         estimate D2E/DX2                !
 ! D60   D(63,11,12,13)       -179.6919         estimate D2E/DX2                !
 ! D61   D(63,11,12,64)         -0.0655         estimate D2E/DX2                !
 ! D62   D(11,12,13,14)         -0.2897         estimate D2E/DX2                !
 ! D63   D(11,12,13,65)        179.4485         estimate D2E/DX2                !
 ! D64   D(64,12,13,14)       -179.9161         estimate D2E/DX2                !
 ! D65   D(64,12,13,65)         -0.1778         estimate D2E/DX2                !
 ! D66   D(12,13,14,9)          -0.4651         estimate D2E/DX2                !
 ! D67   D(12,13,14,66)        179.7934         estimate D2E/DX2                !
 ! D68   D(65,13,14,9)         179.7962         estimate D2E/DX2                !
 ! D69   D(65,13,14,66)          0.0546         estimate D2E/DX2                !
 ! D70   D(2,15,16,17)        -166.18           estimate D2E/DX2                !
 ! D71   D(2,15,16,21)          14.4235         estimate D2E/DX2                !
 ! D72   D(22,15,16,17)         13.326          estimate D2E/DX2                !
 ! D73   D(22,15,16,21)       -166.0705         estimate D2E/DX2                !
 ! D74   D(2,15,22,23)         166.2651         estimate D2E/DX2                !
 ! D75   D(2,15,22,27)         -14.9873         estimate D2E/DX2                !
 ! D76   D(16,15,22,23)        -13.2308         estimate D2E/DX2                !
 ! D77   D(16,15,22,27)        165.5168         estimate D2E/DX2                !
 ! D78   D(15,16,17,18)        175.8496         estimate D2E/DX2                !
 ! D79   D(15,16,17,28)         -4.515          estimate D2E/DX2                !
 ! D80   D(21,16,17,18)         -4.7083         estimate D2E/DX2                !
 ! D81   D(21,16,17,28)        174.927          estimate D2E/DX2                !
 ! D82   D(15,16,21,20)       -176.8003         estimate D2E/DX2                !
 ! D83   D(15,16,21,70)          4.6738         estimate D2E/DX2                !
 ! D84   D(17,16,21,20)          3.7864         estimate D2E/DX2                !
 ! D85   D(17,16,21,70)       -174.7395         estimate D2E/DX2                !
 ! D86   D(16,17,18,19)          2.7696         estimate D2E/DX2                !
 ! D87   D(16,17,18,67)       -178.3745         estimate D2E/DX2                !
 ! D88   D(28,17,18,19)       -176.8591         estimate D2E/DX2                !
 ! D89   D(28,17,18,67)          1.9969         estimate D2E/DX2                !
 ! D90   D(16,17,28,23)         -4.4617         estimate D2E/DX2                !
 ! D91   D(16,17,28,29)        177.6287         estimate D2E/DX2                !
 ! D92   D(18,17,28,23)        175.163          estimate D2E/DX2                !
 ! D93   D(18,17,28,29)         -2.7466         estimate D2E/DX2                !
 ! D94   D(17,18,19,20)          0.5786         estimate D2E/DX2                !
 ! D95   D(17,18,19,68)        179.1755         estimate D2E/DX2                !
 ! D96   D(67,18,19,20)       -178.3222         estimate D2E/DX2                !
 ! D97   D(67,18,19,68)          0.2747         estimate D2E/DX2                !
 ! D98   D(18,19,20,21)         -1.6938         estimate D2E/DX2                !
 ! D99   D(18,19,20,69)        178.0936         estimate D2E/DX2                !
 ! D100  D(68,19,20,21)        179.7146         estimate D2E/DX2                !
 ! D101  D(68,19,20,69)         -0.4979         estimate D2E/DX2                !
 ! D102  D(19,20,21,16)         -0.5418         estimate D2E/DX2                !
 ! D103  D(19,20,21,70)        178.057          estimate D2E/DX2                !
 ! D104  D(69,20,21,16)        179.6696         estimate D2E/DX2                !
 ! D105  D(69,20,21,70)         -1.7315         estimate D2E/DX2                !
 ! D106  D(15,22,23,24)       -176.138          estimate D2E/DX2                !
 ! D107  D(15,22,23,28)          4.3662         estimate D2E/DX2                !
 ! D108  D(27,22,23,24)          5.0122         estimate D2E/DX2                !
 ! D109  D(27,22,23,28)       -174.4836         estimate D2E/DX2                !
 ! D110  D(15,22,27,26)        176.8779         estimate D2E/DX2                !
 ! D111  D(15,22,27,74)         -4.9771         estimate D2E/DX2                !
 ! D112  D(23,22,27,26)         -4.3393         estimate D2E/DX2                !
 ! D113  D(23,22,27,74)        173.8057         estimate D2E/DX2                !
 ! D114  D(22,23,24,25)         -2.694          estimate D2E/DX2                !
 ! D115  D(22,23,24,71)        178.4429         estimate D2E/DX2                !
 ! D116  D(28,23,24,25)        176.7943         estimate D2E/DX2                !
 ! D117  D(28,23,24,71)         -2.0688         estimate D2E/DX2                !
 ! D118  D(22,23,28,17)          4.5402         estimate D2E/DX2                !
 ! D119  D(22,23,28,29)       -177.5487         estimate D2E/DX2                !
 ! D120  D(24,23,28,17)       -174.9422         estimate D2E/DX2                !
 ! D121  D(24,23,28,29)          2.9688         estimate D2E/DX2                !
 ! D122  D(23,24,25,26)         -0.8387         estimate D2E/DX2                !
 ! D123  D(23,24,25,72)       -179.388          estimate D2E/DX2                !
 ! D124  D(71,24,25,26)        178.0701         estimate D2E/DX2                !
 ! D125  D(71,24,25,72)         -0.4792         estimate D2E/DX2                !
 ! D126  D(24,25,26,27)          1.724          estimate D2E/DX2                !
 ! D127  D(24,25,26,73)       -178.1642         estimate D2E/DX2                !
 ! D128  D(72,25,26,27)       -179.7324         estimate D2E/DX2                !
 ! D129  D(72,25,26,73)          0.3793         estimate D2E/DX2                !
 ! D130  D(25,26,27,22)          0.9368         estimate D2E/DX2                !
 ! D131  D(25,26,27,74)       -177.3075         estimate D2E/DX2                !
 ! D132  D(73,26,27,22)       -179.1744         estimate D2E/DX2                !
 ! D133  D(73,26,27,74)          2.5813         estimate D2E/DX2                !
 ! D134  D(17,28,29,30)         88.4578         estimate D2E/DX2                !
 ! D135  D(17,28,29,55)        -91.8457         estimate D2E/DX2                !
 ! D136  D(23,28,29,30)        -89.4767         estimate D2E/DX2                !
 ! D137  D(23,28,29,55)         90.2198         estimate D2E/DX2                !
 ! D138  D(28,29,30,31)        179.5781         estimate D2E/DX2                !
 ! D139  D(28,29,30,35)         -0.5397         estimate D2E/DX2                !
 ! D140  D(55,29,30,31)         -0.1128         estimate D2E/DX2                !
 ! D141  D(55,29,30,35)        179.7693         estimate D2E/DX2                !
 ! D142  D(28,29,55,50)       -179.3347         estimate D2E/DX2                !
 ! D143  D(28,29,55,54)          0.3604         estimate D2E/DX2                !
 ! D144  D(30,29,55,50)          0.3577         estimate D2E/DX2                !
 ! D145  D(30,29,55,54)       -179.9472         estimate D2E/DX2                !
 ! D146  D(29,30,31,32)        179.2546         estimate D2E/DX2                !
 ! D147  D(29,30,31,36)         -0.2348         estimate D2E/DX2                !
 ! D148  D(35,30,31,32)         -0.6326         estimate D2E/DX2                !
 ! D149  D(35,30,31,36)        179.878          estimate D2E/DX2                !
 ! D150  D(29,30,35,34)       -179.5357         estimate D2E/DX2                !
 ! D151  D(29,30,35,78)          0.317          estimate D2E/DX2                !
 ! D152  D(31,30,35,34)          0.348          estimate D2E/DX2                !
 ! D153  D(31,30,35,78)       -179.7992         estimate D2E/DX2                !
 ! D154  D(30,31,32,33)          0.5563         estimate D2E/DX2                !
 ! D155  D(30,31,32,75)       -179.2829         estimate D2E/DX2                !
 ! D156  D(36,31,32,33)       -179.9757         estimate D2E/DX2                !
 ! D157  D(36,31,32,75)          0.1851         estimate D2E/DX2                !
 ! D158  D(30,31,36,37)       -179.379          estimate D2E/DX2                !
 ! D159  D(30,31,36,50)          0.3485         estimate D2E/DX2                !
 ! D160  D(32,31,36,37)          1.1587         estimate D2E/DX2                !
 ! D161  D(32,31,36,50)       -179.1138         estimate D2E/DX2                !
 ! D162  D(31,32,33,34)         -0.1481         estimate D2E/DX2                !
 ! D163  D(31,32,33,76)        179.8061         estimate D2E/DX2                !
 ! D164  D(75,32,33,34)        179.6968         estimate D2E/DX2                !
 ! D165  D(75,32,33,76)         -0.349          estimate D2E/DX2                !
 ! D166  D(32,33,34,35)         -0.1666         estimate D2E/DX2                !
 ! D167  D(32,33,34,77)        179.9417         estimate D2E/DX2                !
 ! D168  D(76,33,34,35)        179.8794         estimate D2E/DX2                !
 ! D169  D(76,33,34,77)         -0.0124         estimate D2E/DX2                !
 ! D170  D(33,34,35,30)          0.0635         estimate D2E/DX2                !
 ! D171  D(33,34,35,78)       -179.7944         estimate D2E/DX2                !
 ! D172  D(77,34,35,30)        179.9556         estimate D2E/DX2                !
 ! D173  D(77,34,35,78)          0.0977         estimate D2E/DX2                !
 ! D174  D(31,36,37,38)         76.7498         estimate D2E/DX2                !
 ! D175  D(31,36,37,44)       -103.3555         estimate D2E/DX2                !
 ! D176  D(50,36,37,38)       -102.985          estimate D2E/DX2                !
 ! D177  D(50,36,37,44)         76.9096         estimate D2E/DX2                !
 ! D178  D(31,36,50,51)       -179.441          estimate D2E/DX2                !
 ! D179  D(31,36,50,55)         -0.105          estimate D2E/DX2                !
 ! D180  D(37,36,50,51)          0.2865         estimate D2E/DX2                !
 ! D181  D(37,36,50,55)        179.6225         estimate D2E/DX2                !
 ! D182  D(36,37,38,39)         37.0132         estimate D2E/DX2                !
 ! D183  D(36,37,38,43)       -141.6656         estimate D2E/DX2                !
 ! D184  D(44,37,38,39)       -142.8788         estimate D2E/DX2                !
 ! D185  D(44,37,38,43)         38.4423         estimate D2E/DX2                !
 ! D186  D(36,37,44,45)         36.8439         estimate D2E/DX2                !
 ! D187  D(36,37,44,49)       -141.8198         estimate D2E/DX2                !
 ! D188  D(38,37,44,45)       -143.2642         estimate D2E/DX2                !
 ! D189  D(38,37,44,49)         38.0721         estimate D2E/DX2                !
 ! D190  D(37,38,39,40)       -179.3389         estimate D2E/DX2                !
 ! D191  D(37,38,39,79)          0.9885         estimate D2E/DX2                !
 ! D192  D(43,38,39,40)         -0.6317         estimate D2E/DX2                !
 ! D193  D(43,38,39,79)        179.6957         estimate D2E/DX2                !
 ! D194  D(37,38,43,42)        179.3407         estimate D2E/DX2                !
 ! D195  D(37,38,43,83)          0.0523         estimate D2E/DX2                !
 ! D196  D(39,38,43,42)          0.6299         estimate D2E/DX2                !
 ! D197  D(39,38,43,83)       -178.6585         estimate D2E/DX2                !
 ! D198  D(38,39,40,41)          0.2545         estimate D2E/DX2                !
 ! D199  D(38,39,40,80)       -179.8786         estimate D2E/DX2                !
 ! D200  D(79,39,40,41)        179.9344         estimate D2E/DX2                !
 ! D201  D(79,39,40,80)         -0.1987         estimate D2E/DX2                !
 ! D202  D(39,40,41,42)          0.1398         estimate D2E/DX2                !
 ! D203  D(39,40,41,81)        179.8555         estimate D2E/DX2                !
 ! D204  D(80,40,41,42)       -179.7268         estimate D2E/DX2                !
 ! D205  D(80,40,41,81)         -0.0111         estimate D2E/DX2                !
 ! D206  D(40,41,42,43)         -0.142          estimate D2E/DX2                !
 ! D207  D(40,41,42,82)        179.5577         estimate D2E/DX2                !
 ! D208  D(81,41,42,43)       -179.8575         estimate D2E/DX2                !
 ! D209  D(81,41,42,82)         -0.1579         estimate D2E/DX2                !
 ! D210  D(41,42,43,38)         -0.2499         estimate D2E/DX2                !
 ! D211  D(41,42,43,83)        179.0511         estimate D2E/DX2                !
 ! D212  D(82,42,43,38)       -179.95           estimate D2E/DX2                !
 ! D213  D(82,42,43,83)         -0.649          estimate D2E/DX2                !
 ! D214  D(37,44,45,46)       -179.321          estimate D2E/DX2                !
 ! D215  D(37,44,45,84)          0.9908         estimate D2E/DX2                !
 ! D216  D(49,44,45,46)         -0.6288         estimate D2E/DX2                !
 ! D217  D(49,44,45,84)        179.6829         estimate D2E/DX2                !
 ! D218  D(37,44,49,48)        179.3144         estimate D2E/DX2                !
 ! D219  D(37,44,49,88)          0.0471         estimate D2E/DX2                !
 ! D220  D(45,44,49,48)          0.6184         estimate D2E/DX2                !
 ! D221  D(45,44,49,88)       -178.649          estimate D2E/DX2                !
 ! D222  D(44,45,46,47)          0.2604         estimate D2E/DX2                !
 ! D223  D(44,45,46,85)       -179.8869         estimate D2E/DX2                !
 ! D224  D(84,45,46,47)        179.9556         estimate D2E/DX2                !
 ! D225  D(84,45,46,85)         -0.1917         estimate D2E/DX2                !
 ! D226  D(45,46,47,48)          0.1337         estimate D2E/DX2                !
 ! D227  D(45,46,47,86)        179.8487         estimate D2E/DX2                !
 ! D228  D(85,46,47,48)       -179.7186         estimate D2E/DX2                !
 ! D229  D(85,46,47,86)         -0.0036         estimate D2E/DX2                !
 ! D230  D(46,47,48,49)         -0.1446         estimate D2E/DX2                !
 ! D231  D(46,47,48,87)        179.556          estimate D2E/DX2                !
 ! D232  D(86,47,48,49)       -179.8594         estimate D2E/DX2                !
 ! D233  D(86,47,48,87)         -0.1589         estimate D2E/DX2                !
 ! D234  D(47,48,49,44)         -0.2383         estimate D2E/DX2                !
 ! D235  D(47,48,49,88)        179.0423         estimate D2E/DX2                !
 ! D236  D(87,48,49,44)       -179.9393         estimate D2E/DX2                !
 ! D237  D(87,48,49,88)         -0.6588         estimate D2E/DX2                !
 ! D238  D(36,50,51,52)        179.9215         estimate D2E/DX2                !
 ! D239  D(36,50,51,89)          0.0528         estimate D2E/DX2                !
 ! D240  D(55,50,51,52)          0.5784         estimate D2E/DX2                !
 ! D241  D(55,50,51,89)       -179.2902         estimate D2E/DX2                !
 ! D242  D(36,50,55,29)         -0.2458         estimate D2E/DX2                !
 ! D243  D(36,50,55,54)       -179.9542         estimate D2E/DX2                !
 ! D244  D(51,50,55,29)        179.1239         estimate D2E/DX2                !
 ! D245  D(51,50,55,54)         -0.5844         estimate D2E/DX2                !
 ! D246  D(50,51,52,53)         -0.1946         estimate D2E/DX2                !
 ! D247  D(50,51,52,90)        179.761          estimate D2E/DX2                !
 ! D248  D(89,51,52,53)        179.6787         estimate D2E/DX2                !
 ! D249  D(89,51,52,90)         -0.3657         estimate D2E/DX2                !
 ! D250  D(51,52,53,54)         -0.1689         estimate D2E/DX2                !
 ! D251  D(51,52,53,91)        179.9483         estimate D2E/DX2                !
 ! D252  D(90,52,53,54)        179.8757         estimate D2E/DX2                !
 ! D253  D(90,52,53,91)         -0.0071         estimate D2E/DX2                !
 ! D254  D(52,53,54,55)          0.1394         estimate D2E/DX2                !
 ! D255  D(52,53,54,92)       -179.7655         estimate D2E/DX2                !
 ! D256  D(91,53,54,55)       -179.9775         estimate D2E/DX2                !
 ! D257  D(91,53,54,92)          0.1177         estimate D2E/DX2                !
 ! D258  D(53,54,55,29)       -179.4501         estimate D2E/DX2                !
 ! D259  D(53,54,55,50)          0.2494         estimate D2E/DX2                !
 ! D260  D(92,54,55,29)          0.4513         estimate D2E/DX2                !
 ! D261  D(92,54,55,50)       -179.8492         estimate D2E/DX2                !
 --------------------------------------------------------------------------------
 Trust Radius=3.00D-01 FncErr=1.00D-07 GrdErr=1.00D-06
 Number of steps in this run=    538 maximum allowed number of steps=    552.
 GradGradGradGradGradGradGradGradGradGradGradGradGradGradGradGradGradGrad

 Stoichiometry    C54H37O(2)
 Framework group  C1[X(C54H37O)]
 Deg. of freedom   270
 Full point group                 C1      NOp   1
 Largest Abelian subgroup         C1      NOp   1
 Largest concise Abelian subgroup C1      NOp   1
                         Standard orientation:                         
 ---------------------------------------------------------------------
 Center     Atomic      Atomic             Coordinates (Angstroms)
 Number     Number       Type             X           Y           Z
 ---------------------------------------------------------------------
      1          8           0        5.201486   -1.040472   -1.718197
      2          6           0        4.999133   -0.265196   -0.505918
      3          6           0        5.869924   -0.930884    0.587492
      4          6           0        7.031871   -1.652665    0.237644
      5          6           0        7.844382   -2.242766    1.208602
      6          6           0        7.517406   -2.123271    2.554923
      7          6           0        6.380607   -1.413356    2.929175
      8          6           0        5.567194   -0.821307    1.957744
      9          6           0        5.542988    1.095281   -1.018901
     10          6           0        4.860280    1.784652   -2.048067
     11          6           0        5.326670    3.004882   -2.543143
     12          6           0        6.494356    3.561975   -2.033182
     13          6           0        7.197247    2.898267   -1.032373
     14          6           0        6.731190    1.677458   -0.533700
     15          6           0        3.460060   -0.294497   -0.138328
     16          6           0        2.695856   -1.496238   -0.383761
     17          6           0        1.281044   -1.443752   -0.338618
     18          6           0        0.543493   -2.613323   -0.670066
     19          6           0        1.151593   -3.825000   -0.983192
     20          6           0        2.526162   -3.906952   -0.962368
     21          6           0        3.274436   -2.767737   -0.663690
     22          6           0        2.801195    0.858748    0.427432
     23          6           0        1.384676    0.897233    0.469399
     24          6           0        0.746174    2.072633    0.952287
     25          6           0        1.450467    3.169242    1.437590
     26          6           0        2.825544    3.115422    1.470663
     27          6           0        3.477193    1.981081    0.984683
     28          6           0        0.629600   -0.234448    0.041866
     29          6           0       -0.873114   -0.165624    0.037238
     30          6           0       -1.604980   -0.548268    1.206796
     31          6           0       -3.017375   -0.473357    1.200761
     32          6           0       -3.710594   -0.876566    2.373664
     33          6           0       -3.053837   -1.326341    3.517989
     34          6           0       -1.674665   -1.391005    3.526141
     35          6           0       -0.965614   -1.008610    2.388734
     36          6           0       -3.682483   -0.011165    0.025192
     37          6           0       -5.198731    0.083216    0.022461
     38          6           0       -5.863312    1.231215    0.736464
     39          6           0       -5.293976    2.512638    0.725618
     40          6           0       -5.906422    3.571918    1.400653
     41          6           0       -7.092847    3.362747    2.099488
     42          6           0       -7.666663    2.094298    2.126769
     43          6           0       -7.054725    1.035028    1.452003
     44          6           0       -6.000305   -0.970787   -0.695295
     45          6           0       -5.594855   -2.313070   -0.688733
     46          6           0       -6.333979   -3.285368   -1.367808
     47          6           0       -7.484555   -2.927766   -2.066489
     48          6           0       -7.896049   -1.597755   -2.089531
     49          6           0       -7.157507   -0.625406   -1.410552
     50          6           0       -2.960845    0.370182   -1.146015
     51          6           0       -3.594965    0.844470   -2.325717
     52          6           0       -2.882799    1.216414   -3.464865
     53          6           0       -1.504874    1.129707   -3.460627
     54          6           0       -0.852411    0.675253   -2.316025
     55          6           0       -1.548833    0.289524   -1.139490
     56          1           0        4.381271   -0.978493   -2.232946
     57          1           0        7.315276   -1.752871   -0.809513
     58          1           0        8.732025   -2.793690    0.909169
     59          1           0        8.147089   -2.582941    3.311740
     60          1           0        6.121419   -1.319585    3.980886
     61          1           0        4.688460   -0.280647    2.298569
     62          1           0        3.944457    1.374827   -2.469268
     63          1           0        4.776921    3.517057   -3.328370
     64          1           0        6.859944    4.509543   -2.419291
     65          1           0        8.115163    3.327004   -0.638159
     66          1           0        7.316829    1.195352    0.245551
     67          1           0       -0.545493   -2.601827   -0.671607
     68          1           0        0.547864   -4.696951   -1.217507
     69          1           0        3.027103   -4.848073   -1.172390
     70          1           0        4.353202   -2.910551   -0.632105
     71          1           0       -0.340158    2.146356    0.974773
     72          1           0        0.920259    4.042605    1.805782
     73          1           0        3.401429    3.944810    1.871941
     74          1           0        4.558137    1.990847    1.084933
     75          1           0       -4.797462   -0.847348    2.411500
     76          1           0       -3.624547   -1.621791    4.393825
     77          1           0       -1.144071   -1.737875    4.408485
     78          1           0        0.119857   -1.079381    2.439548
     79          1           0       -4.369022    2.705998    0.187621
     80          1           0       -5.453285    4.559648    1.380845
     81          1           0       -7.567010    4.186736    2.626037
     82          1           0       -8.588648    1.925607    2.677028
     83          1           0       -7.513537    0.049871    1.500823
     84          1           0       -4.701480   -2.621741   -0.151276
     85          1           0       -6.007362   -4.321930   -1.351532
     86          1           0       -8.057059   -3.684527   -2.596203
     87          1           0       -8.789329   -1.313601   -2.639605
     88          1           0       -7.490203    0.409372   -1.456313
     89          1           0       -4.678084    0.934702   -2.373601
     90          1           0       -3.410344    1.570096   -4.346305
     91          1           0       -0.932379    1.414155   -4.338987
     92          1           0        0.234328    0.626990   -2.356589
 ---------------------------------------------------------------------
 Rotational constants (GHZ):      0.1038997      0.0272786      0.0262797
 Standard basis: CC-pVDZ (5D, 7F)
 There are  1010 symmetry adapted cartesian basis functions of A   symmetry.
 There are   955 symmetry adapted basis functions of A   symmetry.
   955 basis functions,  2074 primitive gaussians,  1010 cartesian basis functions
   185 alpha electrons      184 beta electrons
       nuclear repulsion energy      6824.6202583707 Hartrees.
 NAtoms=   92 NActive=   92 NUniq=   92 SFac= 1.00D+00 NAtFMM=   60 NAOKFM=T Big=T
 Integral buffers will be    131072 words long.
 Raffenetti 2 integral format.
 Two-electron integral symmetry is turned on.
 Nuclear repulsion after empirical dispersion term =     6824.5265495553 Hartrees.
 ------------------------------------------------------------------------------
 Polarizable Continuum Model (PCM)
 =================================
 Model                : C-PCM.
 Atomic radii         : UFF (Universal Force Field).
 Polarization charges : Total charges.
 Charge compensation  : None.
 Solution method      : On-the-fly selection.
 Cavity type          : Scaled VdW (van der Waals Surface) (Alpha=1.100).
 Cavity algorithm     : GePol (No added spheres)
                        Default sphere list used, NSphG=   92.
                        Lebedev-Laikov grids with approx.  5.0 points / Ang**2.
                        Smoothing algorithm: Karplus/York (Gamma=1.0000).
                        Polarization charges: spherical gaussians, with
                                              point-specific exponents (IZeta= 3).
                        Self-potential: point-specific (ISelfS= 7).
                        Self-field    : sphere-specific E.n sum rule (ISelfD= 2).
 1st derivatives      : Analytical E(r).r(x)/FMM algorithm (CHGder, D1EAlg=3).
                        Cavity 1st derivative terms included.
 Solvent              : n,n-DiMethylFormamide, Eps=  37.219000 Eps(inf)=   2.046330
 ------------------------------------------------------------------------------
 One-electron integrals computed using PRISM.
 NBasis=   955 RedAO= T EigKep=  5.71D-05  NBF=   955
 NBsUse=   955 1.00D-06 EigRej= -1.00D+00 NBFU=   955
 ExpMin= 1.22D-01 ExpMax= 1.17D+04 ExpMxC= 4.01D+02 IAcc=3 IRadAn=         5 AccDes= 0.00D+00
 Harris functional with IExCor= 4639 and IRadAn=       5 diagonalized for initial guess.
 HarFok:  IExCor= 4639 AccDes= 0.00D+00 IRadAn=         5 IDoV= 1 UseB2=F ITyADJ=14
 ICtDFT=  3500011 ScaDFX=  1.000000  1.000000  1.000000  1.000000
 FoFCou: FMM=F IPFlag=           0 FMFlag=      100000 FMFlg1=        2001
         NFxFlg=           0 DoJE=T BraDBF=F KetDBF=T FulRan=T
         wScrn=  0.000000 ICntrl=     500 IOpCl=  0 I1Cent=   200000004 NGrid=           0
         NMat0=    1 NMatS0=      1 NMatT0=    0 NMatD0=    1 NMtDS0=    0 NMtDT0=    0
 Petite list used in FoFCou.
 Initial guess <Sx>= 0.0000 <Sy>= 0.0000 <Sz>= 0.5000 <S**2>= 0.7500 S= 0.5000
 Requested convergence on RMS density matrix=1.00D-08 within 128 cycles.
 Requested convergence on MAX density matrix=1.00D-06.
 Requested convergence on             energy=1.00D-06.
 No special actions if energy rises.
 Inv3:  Mode=1 IEnd=   116251875.
 Iteration    1 A*A^-1 deviation from unit magnitude is 5.55D-15 for   3383.
 Iteration    1 A*A^-1 deviation from orthogonality  is 3.00D-15 for   4383   3938.
 Iteration    1 A^-1*A deviation from unit magnitude is 5.33D-15 for   4873.
 Iteration    1 A^-1*A deviation from orthogonality  is 2.66D-15 for   6208    847.
 Restarting incremental Fock formation.
 Error on total polarization charges =  0.01928
 SCF Done:  E(UwB97XD) =  -2154.66665791     A.U. after   29 cycles
            NFock= 29  Conv=0.70D-08     -V/T= 2.0070
 <Sx>= 0.0000 <Sy>= 0.0000 <Sz>= 0.5000 <S**2>= 0.7889 S= 0.5192
 <L.S>= 0.000000000000E+00
 Annihilation of the first spin contaminant:
 S**2 before annihilation     0.7889,   after     0.7514

 **********************************************************************

            Population analysis using the SCF density.

 **********************************************************************

 Orbital symmetries:
 Alpha Orbitals:
       Occupied  (A) (A) (A) (A) (A) (A) (A) (A) (A) (A) (A) (A)
                 (A) (A) (A) (A) (A) (A) (A) (A) (A) (A) (A) (A)
                 (A) (A) (A) (A) (A) (A) (A) (A) (A) (A) (A) (A)
                 (A) (A) (A) (A) (A) (A) (A) (A) (A) (A) (A) (A)
                 (A) (A) (A) (A) (A) (A) (A) (A) (A) (A) (A) (A)
                 (A) (A) (A) (A) (A) (A) (A) (A) (A) (A) (A) (A)
                 (A) (A) (A) (A) (A) (A) (A) (A) (A) (A) (A) (A)
                 (A) (A) (A) (A) (A) (A) (A) (A) (A) (A) (A) (A)
                 (A) (A) (A) (A) (A) (A) (A) (A) (A) (A) (A) (A)
                 (A) (A) (A) (A) (A) (A) (A) (A) (A) (A) (A) (A)
                 (A) (A) (A) (A) (A) (A) (A) (A) (A) (A) (A) (A)
                 (A) (A) (A) (A) (A) (A) (A) (A) (A) (A) (A) (A)
                 (A) (A) (A) (A) (A) (A) (A) (A) (A) (A) (A) (A)
                 (A) (A) (A) (A) (A) (A) (A) (A) (A) (A) (A) (A)
                 (A) (A) (A) (A) (A) (A) (A) (A) (A) (A) (A) (A)
                 (A) (A) (A) (A) (A)
       Virtual   (A) (A) (A) (A) (A) (A) (A) (A) (A) (A) (A) (A)
                 (A) (A) (A) (A) (A) (A) (A) (A) (A) (A) (A) (A)
                 (A) (A) (A) (A) (A) (A) (A) (A) (A) (A) (A) (A)
                 (A) (A) (A) (A) (A) (A) (A) (A) (A) (A) (A) (A)
                 (A) (A) (A) (A) (A) (A) (A) (A) (A) (A) (A) (A)
                 (A) (A) (A) (A) (A) (A) (A) (A) (A) (A) (A) (A)
                 (A) (A) (A) (A) (A) (A) (A) (A) (A) (A) (A) (A)
                 (A) (A) (A) (A) (A) (A) (A) (A) (A) (A) (A) (A)
                 (A) (A) (A) (A) (A) (A) (A) (A) (A) (A) (A) (A)
                 (A) (A) (A) (A) (A) (A) (A) (A) (A) (A) (A) (A)
                 (A) (A) (A) (A) (A) (A) (A) (A) (A) (A) (A) (A)
                 (A) (A) (A) (A) (A) (A) (A) (A) (A) (A) (A) (A)
                 (A) (A) (A) (A) (A) (A) (A) (A) (A) (A) (A) (A)
                 (A) (A) (A) (A) (A) (A) (A) (A) (A) (A) (A) (A)
                 (A) (A) (A) (A) (A) (A) (A) (A) (A) (A) (A) (A)
                 (A) (A) (A) (A) (A) (A) (A) (A) (A) (A) (A) (A)
                 (A) (A) (A) (A) (A) (A) (A) (A) (A) (A) (A) (A)
                 (A) (A) (A) (A) (A) (A) (A) (A) (A) (A) (A) (A)
                 (A) (A) (A) (A) (A) (A) (A) (A) (A) (A) (A) (A)
                 (A) (A) (A) (A) (A) (A) (A) (A) (A) (A) (A) (A)
                 (A) (A) (A) (A) (A) (A) (A) (A) (A) (A) (A) (A)
                 (A) (A) (A) (A) (A) (A) (A) (A) (A) (A) (A) (A)
                 (A) (A) (A) (A) (A) (A) (A) (A) (A) (A) (A) (A)
                 (A) (A) (A) (A) (A) (A) (A) (A) (A) (A) (A) (A)
                 (A) (A) (A) (A) (A) (A) (A) (A) (A) (A) (A) (A)
                 (A) (A) (A) (A) (A) (A) (A) (A) (A) (A) (A) (A)
                 (A) (A) (A) (A) (A) (A) (A) (A) (A) (A) (A) (A)
                 (A) (A) (A) (A) (A) (A) (A) (A) (A) (A) (A) (A)
                 (A) (A) (A) (A) (A) (A) (A) (A) (A) (A) (A) (A)
                 (A) (A) (A) (A) (A) (A) (A) (A) (A) (A) (A) (A)
                 (A) (A) (A) (A) (A) (A) (A) (A) (A) (A) (A) (A)
                 (A) (A) (A) (A) (A) (A) (A) (A) (A) (A) (A) (A)
                 (A) (A) (A) (A) (A) (A) (A) (A) (A) (A) (A) (A)
                 (A) (A) (A) (A) (A) (A) (A) (A) (A) (A) (A) (A)
                 (A) (A) (A) (A) (A) (A) (A) (A) (A) (A) (A) (A)
                 (A) (A) (A) (A) (A) (A) (A) (A) (A) (A) (A) (A)
                 (A) (A) (A) (A) (A) (A) (A) (A) (A) (A) (A) (A)
                 (A) (A) (A) (A) (A) (A) (A) (A) (A) (A) (A) (A)
                 (A) (A) (A) (A) (A) (A) (A) (A) (A) (A) (A) (A)
                 (A) (A) (A) (A) (A) (A) (A) (A) (A) (A) (A) (A)
                 (A) (A) (A) (A) (A) (A) (A) (A) (A) (A) (A) (A)
                 (A) (A) (A) (A) (A) (A) (A) (A) (A) (A) (A) (A)
                 (A) (A) (A) (A) (A) (A) (A) (A) (A) (A) (A) (A)
                 (A) (A) (A) (A) (A) (A) (A) (A) (A) (A) (A) (A)
                 (A) (A) (A) (A) (A) (A) (A) (A) (A) (A) (A) (A)
                 (A) (A) (A) (A) (A) (A) (A) (A) (A) (A) (A) (A)
                 (A) (A) (A) (A) (A) (A) (A) (A) (A) (A) (A) (A)
                 (A) (A) (A) (A) (A) (A) (A) (A) (A) (A) (A) (A)
                 (A) (A) (A) (A) (A) (A) (A) (A) (A) (A) (A) (A)
                 (A) (A) (A) (A) (A) (A) (A) (A) (A) (A) (A) (A)
                 (A) (A) (A) (A) (A) (A) (A) (A) (A) (A) (A) (A)
                 (A) (A) (A) (A) (A) (A) (A) (A) (A) (A) (A) (A)
                 (A) (A) (A) (A) (A) (A) (A) (A) (A) (A) (A) (A)
                 (A) (A) (A) (A) (A) (A) (A) (A) (A) (A) (A) (A)
                 (A) (A) (A) (A) (A) (A) (A) (A) (A) (A) (A) (A)
                 (A) (A) (A) (A) (A) (A) (A) (A) (A) (A) (A) (A)
                 (A) (A) (A) (A) (A) (A) (A) (A) (A) (A) (A) (A)
                 (A) (A) (A) (A) (A) (A) (A) (A) (A) (A) (A) (A)
                 (A) (A) (A) (A) (A) (A) (A) (A) (A) (A) (A) (A)
                 (A) (A) (A) (A) (A) (A) (A) (A) (A) (A) (A) (A)
                 (A) (A) (A) (A) (A) (A) (A) (A) (A) (A) (A) (A)
                 (A) (A) (A) (A) (A) (A) (A) (A) (A) (A) (A) (A)
                 (A) (A) (A) (A) (A) (A) (A) (A) (A) (A) (A) (A)
                 (A) (A) (A) (A) (A) (A) (A) (A) (A) (A) (A) (A)
                 (A) (A)
 Beta  Orbitals:
       Occupied  (A) (A) (A) (A) (A) (A) (A) (A) (A) (A) (A) (A)
                 (A) (A) (A) (A) (A) (A) (A) (A) (A) (A) (A) (A)
                 (A) (A) (A) (A) (A) (A) (A) (A) (A) (A) (A) (A)
                 (A) (A) (A) (A) (A) (A) (A) (A) (A) (A) (A) (A)
                 (A) (A) (A) (A) (A) (A) (A) (A) (A) (A) (A) (A)
                 (A) (A) (A) (A) (A) (A) (A) (A) (A) (A) (A) (A)
                 (A) (A) (A) (A) (A) (A) (A) (A) (A) (A) (A) (A)
                 (A) (A) (A) (A) (A) (A) (A) (A) (A) (A) (A) (A)
                 (A) (A) (A) (A) (A) (A) (A) (A) (A) (A) (A) (A)
                 (A) (A) (A) (A) (A) (A) (A) (A) (A) (A) (A) (A)
                 (A) (A) (A) (A) (A) (A) (A) (A) (A) (A) (A) (A)
                 (A) (A) (A) (A) (A) (A) (A) (A) (A) (A) (A) (A)
                 (A) (A) (A) (A) (A) (A) (A) (A) (A) (A) (A) (A)
                 (A) (A) (A) (A) (A) (A) (A) (A) (A) (A) (A) (A)
                 (A) (A) (A) (A) (A) (A) (A) (A) (A) (A) (A) (A)
                 (A) (A) (A) (A)
       Virtual   (A) (A) (A) (A) (A) (A) (A) (A) (A) (A) (A) (A)
                 (A) (A) (A) (A) (A) (A) (A) (A) (A) (A) (A) (A)
                 (A) (A) (A) (A) (A) (A) (A) (A) (A) (A) (A) (A)
                 (A) (A) (A) (A) (A) (A) (A) (A) (A) (A) (A) (A)
                 (A) (A) (A) (A) (A) (A) (A) (A) (A) (A) (A) (A)
                 (A) (A) (A) (A) (A) (A) (A) (A) (A) (A) (A) (A)
                 (A) (A) (A) (A) (A) (A) (A) (A) (A) (A) (A) (A)
                 (A) (A) (A) (A) (A) (A) (A) (A) (A) (A) (A) (A)
                 (A) (A) (A) (A) (A) (A) (A) (A) (A) (A) (A) (A)
                 (A) (A) (A) (A) (A) (A) (A) (A) (A) (A) (A) (A)
                 (A) (A) (A) (A) (A) (A) (A) (A) (A) (A) (A) (A)
                 (A) (A) (A) (A) (A) (A) (A) (A) (A) (A) (A) (A)
                 (A) (A) (A) (A) (A) (A) (A) (A) (A) (A) (A) (A)
                 (A) (A) (A) (A) (A) (A) (A) (A) (A) (A) (A) (A)
                 (A) (A) (A) (A) (A) (A) (A) (A) (A) (A) (A) (A)
                 (A) (A) (A) (A) (A) (A) (A) (A) (A) (A) (A) (A)
                 (A) (A) (A) (A) (A) (A) (A) (A) (A) (A) (A) (A)
                 (A) (A) (A) (A) (A) (A) (A) (A) (A) (A) (A) (A)
                 (A) (A) (A) (A) (A) (A) (A) (A) (A) (A) (A) (A)
                 (A) (A) (A) (A) (A) (A) (A) (A) (A) (A) (A) (A)
                 (A) (A) (A) (A) (A) (A) (A) (A) (A) (A) (A) (A)
                 (A) (A) (A) (A) (A) (A) (A) (A) (A) (A) (A) (A)
                 (A) (A) (A) (A) (A) (A) (A) (A) (A) (A) (A) (A)
                 (A) (A) (A) (A) (A) (A) (A) (A) (A) (A) (A) (A)
                 (A) (A) (A) (A) (A) (A) (A) (A) (A) (A) (A) (A)
                 (A) (A) (A) (A) (A) (A) (A) (A) (A) (A) (A) (A)
                 (A) (A) (A) (A) (A) (A) (A) (A) (A) (A) (A) (A)
                 (A) (A) (A) (A) (A) (A) (A) (A) (A) (A) (A) (A)
                 (A) (A) (A) (A) (A) (A) (A) (A) (A) (A) (A) (A)
                 (A) (A) (A) (A) (A) (A) (A) (A) (A) (A) (A) (A)
                 (A) (A) (A) (A) (A) (A) (A) (A) (A) (A) (A) (A)
                 (A) (A) (A) (A) (A) (A) (A) (A) (A) (A) (A) (A)
                 (A) (A) (A) (A) (A) (A) (A) (A) (A) (A) (A) (A)
                 (A) (A) (A) (A) (A) (A) (A) (A) (A) (A) (A) (A)
                 (A) (A) (A) (A) (A) (A) (A) (A) (A) (A) (A) (A)
                 (A) (A) (A) (A) (A) (A) (A) (A) (A) (A) (A) (A)
                 (A) (A) (A) (A) (A) (A) (A) (A) (A) (A) (A) (A)
                 (A) (A) (A) (A) (A) (A) (A) (A) (A) (A) (A) (A)
                 (A) (A) (A) (A) (A) (A) (A) (A) (A) (A) (A) (A)
                 (A) (A) (A) (A) (A) (A) (A) (A) (A) (A) (A) (A)
                 (A) (A) (A) (A) (A) (A) (A) (A) (A) (A) (A) (A)
                 (A) (A) (A) (A) (A) (A) (A) (A) (A) (A) (A) (A)
                 (A) (A) (A) (A) (A) (A) (A) (A) (A) (A) (A) (A)
                 (A) (A) (A) (A) (A) (A) (A) (A) (A) (A) (A) (A)
                 (A) (A) (A) (A) (A) (A) (A) (A) (A) (A) (A) (A)
                 (A) (A) (A) (A) (A) (A) (A) (A) (A) (A) (A) (A)
                 (A) (A) (A) (A) (A) (A) (A) (A) (A) (A) (A) (A)
                 (A) (A) (A) (A) (A) (A) (A) (A) (A) (A) (A) (A)
                 (A) (A) (A) (A) (A) (A) (A) (A) (A) (A) (A) (A)
                 (A) (A) (A) (A) (A) (A) (A) (A) (A) (A) (A) (A)
                 (A) (A) (A) (A) (A) (A) (A) (A) (A) (A) (A) (A)
                 (A) (A) (A) (A) (A) (A) (A) (A) (A) (A) (A) (A)
                 (A) (A) (A) (A) (A) (A) (A) (A) (A) (A) (A) (A)
                 (A) (A) (A) (A) (A) (A) (A) (A) (A) (A) (A) (A)
                 (A) (A) (A) (A) (A) (A) (A) (A) (A) (A) (A) (A)
                 (A) (A) (A) (A) (A) (A) (A) (A) (A) (A) (A) (A)
                 (A) (A) (A) (A) (A) (A) (A) (A) (A) (A) (A) (A)
                 (A) (A) (A) (A) (A) (A) (A) (A) (A) (A) (A) (A)
                 (A) (A) (A) (A) (A) (A) (A) (A) (A) (A) (A) (A)
                 (A) (A) (A) (A) (A) (A) (A) (A) (A) (A) (A) (A)
                 (A) (A) (A) (A) (A) (A) (A) (A) (A) (A) (A) (A)
                 (A) (A) (A) (A) (A) (A) (A) (A) (A) (A) (A) (A)
                 (A) (A) (A) (A) (A) (A) (A) (A) (A) (A) (A) (A)
                 (A) (A) (A) (A) (A) (A) (A) (A) (A) (A) (A) (A)
                 (A) (A) (A)
 The electronic state is 2-A.
 Alpha  occ. eigenvalues --  -19.27057 -10.38910 -10.33622 -10.33512 -10.32999
 Alpha  occ. eigenvalues --  -10.32916 -10.32905 -10.32864 -10.32831 -10.32386
 Alpha  occ. eigenvalues --  -10.32380 -10.32349 -10.32342 -10.32293 -10.32282
 Alpha  occ. eigenvalues --  -10.32233 -10.32232 -10.32218 -10.32180 -10.31062
 Alpha  occ. eigenvalues --  -10.31055 -10.31048 -10.31047 -10.31022 -10.31017
 Alpha  occ. eigenvalues --  -10.30992 -10.30918 -10.30879 -10.30877 -10.30862
 Alpha  occ. eigenvalues --  -10.30859 -10.30858 -10.30825 -10.30824 -10.30814
 Alpha  occ. eigenvalues --  -10.30813 -10.30809 -10.30754 -10.30746 -10.30734
 Alpha  occ. eigenvalues --  -10.30700 -10.30681 -10.30658 -10.30658 -10.30653
 Alpha  occ. eigenvalues --  -10.30632 -10.30632 -10.30623 -10.30582 -10.30582
 Alpha  occ. eigenvalues --  -10.30577 -10.30535 -10.30514 -10.30485 -10.30276
 Alpha  occ. eigenvalues --   -1.13561  -1.00847  -0.99507  -0.97498  -0.96796
 Alpha  occ. eigenvalues --   -0.96641  -0.96541  -0.96273  -0.95915  -0.92737
 Alpha  occ. eigenvalues --   -0.92088  -0.91468  -0.89394  -0.87905  -0.86609
 Alpha  occ. eigenvalues --   -0.85891  -0.85823  -0.85562  -0.85544  -0.85383
 Alpha  occ. eigenvalues --   -0.85208  -0.84998  -0.84896  -0.84851  -0.84605
 Alpha  occ. eigenvalues --   -0.81522  -0.80700  -0.78855  -0.76306  -0.75328
 Alpha  occ. eigenvalues --   -0.75282  -0.71830  -0.71804  -0.71795  -0.70786
 Alpha  occ. eigenvalues --   -0.70669  -0.70417  -0.70017  -0.69865  -0.69695
 Alpha  occ. eigenvalues --   -0.69487  -0.69351  -0.67906  -0.66525  -0.65292
 Alpha  occ. eigenvalues --   -0.63913  -0.63351  -0.62755  -0.62654  -0.61730
 Alpha  occ. eigenvalues --   -0.61510  -0.60921  -0.60221  -0.60148  -0.58418
 Alpha  occ. eigenvalues --   -0.56381  -0.56171  -0.56052  -0.55792  -0.55742
 Alpha  occ. eigenvalues --   -0.55625  -0.55410  -0.55252  -0.55070  -0.54622
 Alpha  occ. eigenvalues --   -0.54203  -0.54141  -0.53651  -0.53356  -0.52954
 Alpha  occ. eigenvalues --   -0.52559  -0.52322  -0.51759  -0.51536  -0.51415
 Alpha  occ. eigenvalues --   -0.51031  -0.50947  -0.50854  -0.50768  -0.50609
 Alpha  occ. eigenvalues --   -0.50550  -0.50382  -0.49794  -0.49347  -0.48925
 Alpha  occ. eigenvalues --   -0.48705  -0.48292  -0.47023  -0.46716  -0.46652
 Alpha  occ. eigenvalues --   -0.46579  -0.46335  -0.46258  -0.45956  -0.45772
 Alpha  occ. eigenvalues --   -0.45116  -0.44315  -0.43861  -0.43692  -0.43477
 Alpha  occ. eigenvalues --   -0.43273  -0.43236  -0.43071  -0.42728  -0.42515
 Alpha  occ. eigenvalues --   -0.42446  -0.42305  -0.42162  -0.41200  -0.40390
 Alpha  occ. eigenvalues --   -0.39603  -0.39307  -0.38524  -0.37834  -0.37291
 Alpha  occ. eigenvalues --   -0.36348  -0.34779  -0.34178  -0.34127  -0.33755
 Alpha  occ. eigenvalues --   -0.33583  -0.33477  -0.33137  -0.32997  -0.32968
 Alpha  occ. eigenvalues --   -0.32745  -0.31350  -0.26980  -0.26372  -0.25104
 Alpha virt. eigenvalues --   -0.03097  -0.02757   0.03281   0.03981   0.04661
 Alpha virt. eigenvalues --    0.04775   0.04882   0.05125   0.05511   0.06140
 Alpha virt. eigenvalues --    0.06150   0.06469   0.06531   0.07567   0.08935
 Alpha virt. eigenvalues --    0.10465   0.12089   0.12558   0.12751   0.13562
 Alpha virt. eigenvalues --    0.14796   0.14937   0.15125   0.15326   0.15633
 Alpha virt. eigenvalues --    0.15650   0.16252   0.17169   0.17704   0.17795
 Alpha virt. eigenvalues --    0.18299   0.18510   0.19180   0.19207   0.19539
 Alpha virt. eigenvalues --    0.19714   0.20209   0.20511   0.20710   0.20770
 Alpha virt. eigenvalues --    0.21209   0.21356   0.21731   0.21916   0.22030
 Alpha virt. eigenvalues --    0.22185   0.22360   0.22489   0.22706   0.22758
 Alpha virt. eigenvalues --    0.23204   0.23595   0.23614   0.24011   0.24238
 Alpha virt. eigenvalues --    0.24386   0.24991   0.25190   0.25473   0.25760
 Alpha virt. eigenvalues --    0.26005   0.26796   0.27008   0.27826   0.28286
 Alpha virt. eigenvalues --    0.28915   0.29636   0.29853   0.30116   0.30957
 Alpha virt. eigenvalues --    0.31431   0.31816   0.33165   0.33505   0.34003
 Alpha virt. eigenvalues --    0.34289   0.34414   0.34861   0.35359   0.35678
 Alpha virt. eigenvalues --    0.35860   0.36014   0.36070   0.36249   0.36383
 Alpha virt. eigenvalues --    0.36536   0.36634   0.36657   0.36781   0.37437
 Alpha virt. eigenvalues --    0.37914   0.38023   0.38871   0.39012   0.39583
 Alpha virt. eigenvalues --    0.40267   0.40309   0.40530   0.40771   0.40952
 Alpha virt. eigenvalues --    0.41607   0.41846   0.42473   0.43013   0.43502
 Alpha virt. eigenvalues --    0.43796   0.44614   0.47537   0.47649   0.47705
 Alpha virt. eigenvalues --    0.47958   0.49015   0.49688   0.49871   0.50057
 Alpha virt. eigenvalues --    0.50482   0.50696   0.50972   0.51249   0.51353
 Alpha virt. eigenvalues --    0.51571   0.51898   0.52071   0.52203   0.52488
[...]
 0048,0.00000246,-0.00000019,-0.00000018,0.00000107,0.00000075,-0.00000
 092,0.00000092,0.00000056,-0.00000269,-0.00000038,-0.00000122,-0.00000
 023,-0.00002712,0.00031396,0.00010877,-0.00221322,-0.00079255,0.000385
 50,0.04161234,-0.00001108,0.00001951,-0.00000319,0.00001355,-0.0000342
 9,0.00000825,-0.00000355,0.00001371,0.00000303,0.00000244,-0.00000316,
 -0.00000524,-0.00000154,0.00000023,-0.00000154,-0.00000118,0.00000030,
 -0.00000225,-0.00000059,0.00000126,0.00000084,0.00000052,-0.00000116,-
 0.00000286,-0.00000631,-0.00000187,-0.00000471,0.00000066,0.00000404,-
 0.00000018,-0.00000101,-0.00000067,-0.00000165,0.00000162,0.00000178,-
 0.00000031,0.00000065,0.00000046,-0.00000063,0.00000096,0.00000344,0.0
 0000381,0.00000522,0.00002366,-0.00000655,0.00000136,-0.00000256,0.000
 01286,0.00002894,0.00000891,-0.00003583,0.00000210,-0.00000150,-0.0000
 0194,-0.00000877,-0.00000281,0.00000293,-0.00000141,-0.00000048,0.0000
 0297,-0.00000082,0.00000221,-0.00000367,-0.00000639,0.00000504,0.00000
 247,-0.00005535,0.00001585,-0.00001380,0.00000761,-0.00000363,-0.00000
 233,0.00000787,-0.00000241,0.00000240,-0.00000056,0.00000045,-0.000000
 46,0.00000038,0.00000503,-0.00000662,0.00011038,-0.00004495,0.00006966
 ,0.00018798,-0.00055631,0.00024012,-0.00026545,0.00001806,-0.00023715,
 0.00002697,0.00000030,0.00009162,0.00001746,0.00001872,-0.00004880,-0.
 00000136,-0.00001286,-0.00001302,0.00001425,-0.00001486,-0.00008535,0.
 00000727,-0.00009226,0.00005241,-0.00018267,-0.00002371,-0.00010101,-0
 .00000992,0.00000424,-0.00010132,-0.00006809,-0.00000216,0.00003887,0.
 00001510,0.00000415,0.00000060,-0.00000766,-0.00000843,0.00000455,0.00
 002070,-0.00000981,0.00000293,0.00000370,-0.00000361,-0.00000123,0.000
 02800,0.00000577,-0.00000356,0.00004735,-0.00002804,-0.00000847,0.0000
 1700,-0.00001191,0.00000808,0.00000702,-0.00000344,0.00001145,-0.00001
 664,-0.00000333,0.00001264,-0.00000160,0.00000148,0.00000189,-0.000028
 85,0.00000110,-0.00002451,-0.00019740,0.00041940,0.00028383,0.00156003
 ,-0.00008225,0.00352229,0.00290753,-0.01252984,-0.00765241,0.06162548,
 -0.32168435,-0.05469943,0.00264279,-0.00554976,0.00186263,0.00173642,0
 .00203910,-0.00160034,0.00000337,-0.00000680,-0.00000217,0.00000031,0.
 00000010,0.00000075,-0.00000063,-0.00000002,-0.00000118,-0.00000024,-0
 .00000004,-0.00000070,0.00000027,-0.00000053,-0.00000077,-0.00000132,0
 .00000281,0.00000388,-0.00000088,-0.00000256,-0.00000435,0.00000060,0.
 00000084,0.00000051,0.00000043,0.00000062,-0.00000011,0.00000060,0.000
 00081,-0.00000030,-0.00000031,-0.00000057,0.00000005,0.00001522,0.0000
 0810,-0.00000233,-0.00000443,-0.00000227,-0.00000037,-0.00000406,0.000
 00044,-0.00000250,-0.00000268,0.00000039,-0.00000173,-0.00002451,-0.00
 000007,0.00000511,0.00000465,0.00000123,0.00000004,0.00000292,0.000002
 32,-0.00000316,0.00000232,0.00000048,-0.00000347,0.00000045,-0.0000079
 1,0.00000932,0.00000051,-0.00001637,-0.00000677,0.00000446,-0.00001320
 ,-0.00001223,-0.00000508,0.00000527,-0.00001541,-0.00002387,-0.0000060
 8,0.00000601,0.00000689,0.00000196,-0.00000143,0.00000422,-0.00000227,
 0.00000083,0.00000492,-0.00000551,0.00000183,-0.00000294,0.00000147,0.
 00000277,0.00002029,0.00000752,0.00000209,-0.00000846,-0.00000102,0.00
 000035,-0.00000368,-0.00000210,0.00000402,-0.00000244,-0.00000283,0.00
 000793,0.00000231,0.00000013,-0.00000208,0.00016055,-0.00075731,-0.000
 32385,-0.00074660,0.00065937,0.00005093,-0.06807471,0.33772356,-0.0000
 1008,0.00001823,-0.00000196,0.00001284,-0.00003231,0.00000725,-0.00000
 349,0.00001274,0.00000255,0.00000234,-0.00000282,-0.00000471,-0.000001
 47,0.00000025,-0.00000149,-0.00000112,0.00000032,-0.00000199,-0.000000
 46,0.00000111,0.00000083,0.00000052,-0.00000093,-0.00000254,-0.0000070
 4,-0.00000238,-0.00000411,0.00000098,0.00000400,0.00000104,-0.00000130
 ,-0.00000151,-0.00000059,0.00000166,0.00000185,-0.00000014,0.00000050,
 0.00000031,-0.00000020,0.00000120,0.00000307,0.00000408,-0.00000270,0.
 00001843,-0.00000826,0.00000226,0.00000793,0.00000226,0.00003384,0.000
 03343,-0.00002372,-0.00000444,-0.00000648,-0.00000028,-0.00000691,-0.0
 0000650,0.00000239,0.00000028,-0.00000018,0.00000205,-0.00000203,0.000
 00404,-0.00000384,-0.00000480,0.00000486,0.00000828,-0.00003584,0.0000
 0289,-0.00002487,0.00000045,-0.00000488,-0.00000014,0.00001093,0.00000
 116,-0.00000086,0.00000229,-0.00000054,0.00000447,-0.00000310,0.000003
 04,-0.00000319,-0.00002237,-0.00004718,0.00014363,0.00031033,-0.001171
 86,0.00064833,0.00013813,-0.00027090,-0.00051636,-0.00003700,0.0000139
 8,-0.00026710,-0.00002825,0.00009923,0.00008682,-0.00001460,0.00002389
 ,-0.00012833,0.00001617,-0.00013006,-0.00002016,0.00003534,-0.00005939
 ,0.00014095,0.00004538,0.00026052,0.00039324,-0.00000599,0.00000540,0.
 00000141,0.00001526,-0.00001196,0.00002037,0.00000524,-0.00000050,-0.0
 0000119,-0.00000123,-0.00000143,0.00000146,0.00000045,-0.00000118,0.00
 000024,0.00000143,-0.00000236,-0.00000020,0.00000549,0.00000278,-0.000
 00156,0.00003871,0.00001364,-0.00000208,-0.00004090,0.00000573,-0.0000
 0537,0.00000691,0.00000297,-0.00000992,0.00000180,-0.00000297,0.000006
 83,0.00000017,0.00000008,0.00000514,-0.00000304,-0.00000582,0.00003017
 ,0.00001071,-0.00023468,-0.00098827,-0.00155218,0.00260126,-0.00343905
 ,-0.00493347,0.02308206,0.00836434,0.00953942,-0.05337198,-0.06899158,
 0.00640034,-0.02953004,-0.00108444,-0.00136648,-0.00078592,-0.00520311
 ,0.00000274,-0.00000626,-0.00000252,0.00000021,0.00000014,0.00000054,-
 0.00000053,-0.00000007,-0.00000103,-0.00000021,0.,-0.00000056,0.000000
 23,-0.00000045,-0.00000072,-0.00000129,0.00000244,0.00000350,-0.000000
 43,-0.00000415,-0.00000243,0.00000080,0.00000112,0.00000070,0.00000022
 ,0.00000036,-0.00000001,0.00000049,0.00000069,-0.00000004,-0.00000037,
 -0.00000057,0.00000028,0.00001260,0.00001280,0.00000032,-0.00000387,-0
 .00000126,0.00000014,-0.00000363,0.00000066,-0.00000197,-0.00000254,-0
 .00000015,-0.00000208,-0.00001397,0.00000652,0.00000038,0.00000406,-0.
 00000006,-0.00000118,0.00000260,0.00000206,-0.00000237,0.00000167,0.00
 000109,-0.00000241,0.00000411,-0.00001115,0.00000367,0.00000368,-0.000
 00635,-0.00000229,0.00000242,-0.00002113,-0.00000871,-0.00000202,0.000
 00900,-0.00000726,-0.00000410,-0.00000284,-0.00000179,0.00000043,0.000
 00011,0.00000008,0.00000022,-0.00000035,0.00000018,0.00000062,-0.00000
 036,0.00000006,-0.00000032,-0.00000078,-0.00000001,0.00000551,0.000000
 27,0.00000192,0.00000079,-0.00000060,-0.00000031,0.00000071,0.00000044
 ,0.00000015,-0.00000026,0.00000056,-0.00000053,0.00000114,-0.00000223,
 0.00000066,-0.00024706,0.00110261,0.00026703,0.00051688,-0.00056637,0.
 00090608,-0.00945803,0.05859387,0.06871783,-0.00002462,0.00001602,-0.0
 0000875,0.00000695,-0.00003879,0.00001296,-0.00000571,0.00001635,0.000
 00344,0.00000243,-0.00000355,-0.00000561,-0.00000169,-0.00000013,-0.00
 000241,-0.00000189,0.00000078,-0.00000268,-0.00000058,0.00000130,0.000
 00164,0.00000088,-0.00000286,-0.00000264,-0.00000173,0.00000018,0.0000
 0368,-0.00003421,0.00001493,0.00000846,-0.00000034,-0.00000486,-0.0000
 0524,0.00000218,0.00000049,-0.00000053,-0.00000180,0.00000086,-0.00000
 216,0.00000267,0.00000158,0.00000378,-0.00009024,0.00005515,0.00002027
 ,0.00002735,0.00018927,-0.00005783,0.00010611,-0.00036695,-0.00030958,
 -0.00010989,0.00000251,0.00005048,-0.00000099,-0.00001945,0.00005397,0
 .00001485,0.00001772,-0.00002903,-0.00003235,-0.00002551,0.00001130,0.
 00008718,-0.00019307,0.00012504,-0.00007667,0.00010063,0.00025621,-0.0
 0020736,-0.00002172,-0.00005329,0.00003332,0.00001121,-0.00004163,0.00
 002251,-0.00001954,0.00004328,-0.00003368,0.00000027,-0.00000747,0.000
 30596,0.00000726,-0.00007023,-0.00187130,-0.00048586,-0.00006906,-0.00
 026267,-0.00011826,0.00003052,-0.00020391,-0.00005981,-0.00002692,0.00
 005235,0.00000567,0.00002734,-0.00002794,0.00001926,-0.00000778,0.0000
 1419,-0.00001171,0.00001487,0.00014886,0.00004662,-0.00002253,-0.00002
 895,0.00011524,-0.00029257,0.00030897,0.00012765,-0.00002623,0.0000391
 9,-0.00003752,0.00004076,-0.00000995,-0.00000950,0.00000195,0.00000149
 ,0.00000664,-0.00000096,-0.00001257,0.00000085,0.00000211,0.00000457,-
 0.00000595,-0.00000176,-0.00000584,0.00001206,0.00000200,-0.00007241,0
 .00004416,-0.00002308,-0.00000226,-0.00001091,-0.00001349,0.00000028,0
 .00000316,-0.00000722,0.00000794,0.00000301,-0.00000251,-0.00000232,-0
 .00000038,-0.00000545,0.00002885,-0.00001957,-0.00000689,0.00392813,0.
 00176106,0.00018785,-0.00073750,0.00000216,0.00037415,0.00882269,0.001
 62629,-0.00066078,0.00512353,0.00097158,0.00012012,-0.05347301,0.04515
 669,-0.04988218,0.00182484,0.00278561,-0.00504461,0.00000963,-0.000009
 00,0.00000205,0.00000055,0.00000047,0.00000052,-0.00000075,-0.00000007
 ,-0.00000132,-0.00000019,0.00000008,-0.00000084,0.00000037,-0.00000051
 ,-0.00000090,-0.00000100,0.00000329,0.00000368,0.00004210,-0.00001871,
 -0.00000835,-0.00000163,0.00000188,0.00000004,0.00000061,0.00000085,-0
 .00000012,0.00000100,0.00000073,-0.00000051,0.00000008,-0.00000001,-0.
 00000034,-0.00000533,-0.00001167,0.00000766,0.00000501,-0.00000259,-0.
 00000097,-0.00000085,-0.00000039,0.00000128,0.00000548,0.00000005,-0.0
 0000096,-0.00000333,0.00001598,0.00000374,0.00001127,0.00000796,-0.000
 00024,0.00000481,0.00000161,-0.00000526,0.00000389,0.00000283,-0.00000
 290,0.00000269,0.00000085,-0.00000395,-0.00000311,0.00000258,0.0000032
 9,-0.00000991,0.00000043,0.00000471,0.00001539,0.00000156,0.00001214,0
 .00000767,0.00000080,-0.00000557,-0.00000270,-0.00000096,0.00000007,-0
 .00000148,0.00000075,-0.00000049,-0.00000049,0.00000115,-0.00000208,0.
 00000036,-0.00000138,0.00000024,-0.00000404,-0.00000296,0.00000194,0.0
 0000291,0.00000025,-0.00000003,0.00000142,0.00000004,-0.00000115,0.000
 00162,0.00000287,-0.00000308,-0.00000231,0.00000224,0.00000041,-0.0011
 0580,-0.00024657,0.00009939,0.00006198,-0.00000088,0.00004108,-0.00543
 873,-0.00149954,0.00062543,0.04281893,0.00005974,-0.00010884,0.0000207
 1,-0.00008012,0.00021477,-0.00005072,0.00002369,-0.00008664,-0.0000174
 4,-0.00001480,0.00001909,0.00003279,0.00000929,-0.00000126,0.00000929,
 0.00000709,-0.00000174,0.00001345,0.00000304,-0.00000724,-0.00000529,-
 0.00000192,0.00000627,0.00001690,0.00003754,0.00001374,0.00001957,-0.0
 0001370,-0.00003098,0.00000052,0.00000690,0.00000498,0.00000419,-0.000
 00870,-0.00000955,0.00000158,-0.00000513,-0.00000304,0.00000342,-0.000
 00709,-0.00001959,-0.00002315,-0.00000056,-0.00021521,-0.00002306,-0.0
 0013876,0.00006516,-0.00014102,-0.00047108,0.00019067,-0.00029847,-0.0
 0012700,-0.00011409,0.00014745,0.00008274,0.00008384,-0.00004791,-0.00
 000909,0.00001235,-0.00003672,-0.00000292,0.00001544,-0.00001096,0.000
 13701,0.00001777,-0.00012330,0.00024400,0.00049198,-0.00022281,0.00013
 063,-0.00005136,0.00010395,-0.00012035,0.00003004,-0.00004630,0.000001
 13,0.00001129,-0.00002908,-0.00001094,0.00001705,-0.00001121,0.0001156
 8,-0.00025503,-0.00054984,-0.00046690,0.00031231,0.00121876,-0.0000895
 6,0.00003888,-0.00003207,-0.00004384,0.00003274,0.00007883,-0.00001430
 ,0.00006815,-0.00008264,0.00000993,-0.00008484,-0.00003905,0.00000656,
 -0.00002962,-0.00000350,0.00004139,0.00004614,0.00011236,0.00019232,-0
 .00045185,0.00151191,0.00009590,-0.00027366,-0.00022204,-0.00002701,-0
 .00006601,0.00010593,0.00000545,-0.00000317,0.00000273,-0.00000068,-0.
 00001487,0.00000468,0.00001737,-0.00000748,0.00000256,0.00001029,-0.00
 000871,-0.00000351,0.00004484,0.00002122,-0.00000055,0.00012302,0.0000
 1554,-0.00003323,-0.00003370,-0.00001216,-0.00000503,0.00001239,0.0000
 0233,-0.00000302,-0.00002064,-0.00000636,0.00001950,0.00000840,0.00000
 360,0.00000296,-0.00003020,-0.00001351,0.00002671,0.00160870,-0.003830
 19,-0.00332614,-0.00019388,-0.00030407,-0.00073170,0.00179418,0.000550
 67,-0.00256589,-0.00218522,0.00993295,-0.01082138,0.04498092,-0.169443
 10,0.13515751,0.00609197,-0.01286951,0.02295439,-0.00001915,0.00004241
 ,0.00000746,-0.00000209,-0.00000011,-0.00000499,0.00000370,0.00000025,
 0.00000699,0.00000139,0.00000018,0.00000426,-0.00000180,0.00000323,0.0
 0000501,0.00000797,-0.00001589,-0.00002439,0.00001118,0.00002633,0.000
 00283,-0.00000277,-0.00000241,-0.00000308,-0.00000254,-0.00000361,0.00
 000039,-0.00000332,-0.00000487,0.00000195,0.00000246,0.00000329,0.0000
 0022,0.00002951,0.00001164,-0.00002168,0.00002655,0.00000003,-0.000006
 87,0.00002091,0.00000304,0.00000874,0.00000624,0.00000087,0.00001072,-
 0.00003259,-0.00000359,-0.00002053,-0.00002035,-0.00000869,-0.00000189
 ,-0.00001740,-0.00000576,0.00000966,-0.00000246,0.00000189,0.00001326,
 0.00000359,-0.00000395,0.00001451,0.00000134,-0.00000984,-0.00001304,-
 0.00000187,-0.00000922,-0.00001385,-0.00000388,0.00001519,-0.00005080,
 -0.00001877,-0.00000392,0.00000389,0.00000735,0.00000181,-0.00000185,0
 .00000451,-0.00000169,0.00000161,0.00000665,-0.00000681,0.00000136,-0.
 00000383,0.00000179,0.00000341,0.00001804,0.00000429,0.00000395,-0.000
 00738,-0.00000120,0.00000013,-0.00000284,-0.00000190,0.00000336,-0.000
 00232,-0.00000239,0.00000710,0.00000262,-0.00000243,-0.00000163,-0.000
 26038,-0.00000928,0.00016911,-0.00013753,0.00034281,-0.00050228,-0.001
 47244,0.00050829,0.00034798,-0.04992229,0.17523491,0.00003180,-0.00006
 681,0.00000705,-0.00004846,0.00011823,-0.00000190,0.00001302,-0.000046
 80,-0.00000949,-0.00000918,0.00001107,0.00001724,0.00000519,-0.0000007
 6,0.00000565,0.00000446,-0.00000098,0.00000828,0.00000231,-0.00000587,
 -0.00000332,-0.00000249,0.00000475,0.00001224,0.00003138,0.00000762,0.
 00002710,-0.00000034,0.00000407,-0.00000691,0.00000455,0.00000064,0.00
 000421,-0.00000593,-0.00000500,0.00000108,-0.00000019,-0.00000205,0.00
 000240,-0.00000643,-0.00001064,-0.00001188,-0.00003151,0.00011352,0.00
 008543,-0.00003256,-0.00013005,0.00010052,-0.00036218,-0.00069614,-0.0
 0111194,0.00021978,0.00017144,0.00013678,-0.00001764,0.00008221,-0.000
 04338,0.00000443,-0.00001558,0.00002033,0.00001505,0.00001997,-0.00000
 088,0.00009424,-0.00007775,0.00007026,0.00047761,-0.00056145,-0.001241
 00,-0.00023221,0.00006980,0.00017629,-0.00003041,0.00007766,-0.0000368
 3,0.00000353,-0.00001449,0.00001591,-0.00001874,0.00000679,0.00000244,
 0.00025195,-0.00174163,-0.00234806,0.00023872,-0.00024202,-0.00044710,
 -0.00005177,0.00038507,0.00011280,0.00002000,0.00008481,0.00019215,0.0
 0000701,-0.00006946,-0.00003566,0.00001163,-0.00000805,0.00009245,-0.0
 0002099,0.00009406,0.00000992,-0.00001305,-0.00006191,-0.00013001,0.00
 011462,-0.00053562,0.00021271,-0.00001247,-0.00009279,0.00000166,0.000
 02305,0.00000364,-0.00000510,-0.00000569,-0.00000330,-0.00000109,0.000
 00378,0.00000068,-0.00000147,-0.00000483,0.00000311,-0.00000103,0.0000
 0014,0.00000199,-0.00000091,-0.00000678,-0.00000141,0.00000219,-0.0000
 0077,0.00001010,0.00000117,-0.00000258,0.00000383,-0.00000066,-0.00000
 322,0.00000063,-0.00000285,0.00000313,0.00000095,-0.00000417,0.0000021
 2,-0.00000085,-0.00000024,0.00000471,0.00000501,0.00000872,-0.00002222
 ,-0.00166976,0.00027426,0.00022885,-0.00060099,-0.00003707,-0.00046660
 ,-0.00350620,-0.00355595,-0.00698703,0.02029917,-0.01606022,-0.0500540
 3,0.13456996,-0.21730400,0.00171920,-0.00519097,0.00785298,-0.00000622
 ,0.00001988,0.00001062,-0.00000069,-0.00000049,-0.00000262,0.00000222,
 0.00000006,0.00000406,0.00000096,0.00000002,0.00000261,-0.00000111,0.0
 0000194,0.00000292,0.00000570,-0.00001111,-0.00001248,0.00000083,-0.00
 001409,0.00002441,-0.00000229,-0.00000409,-0.00000336,-0.00000099,-0.0
 0000179,0.00000006,-0.00000219,-0.00000282,0.00000087,0.00000099,0.000
 00115,-0.00000029,-0.00001049,0.00001287,-0.00000896,0.00001428,-0.000
 00392,-0.00001275,0.00001319,0.00000125,0.00000561,0.00000749,-0.00000
 223,0.00000397,0.00001122,0.00000976,-0.00001390,-0.00001297,-0.000010
 91,-0.00001003,-0.00001131,-0.00000451,0.00000765,-0.00000469,-0.00000
 492,0.00000674,-0.00000271,0.00001154,-0.00000424,-0.00000142,0.000007
 76,0.00000420,-0.00000120,0.00001206,0.00000787,0.00000010,0.00001120,
 0.00002578,0.00000864,0.00000365,-0.00000056,-0.00000170,-0.00000047,0
 .00000032,-0.00000104,0.00000081,-0.00000005,-0.00000133,0.00000120,-0
 .00000046,0.00000079,0.00000008,-0.00000037,-0.00000789,-0.00000225,-0
 .00000100,0.00000197,0.00000049,0.,0.00000079,0.00000048,-0.00000115,0
 .00000057,0.00000009,-0.00000183,-0.00000041,-0.00000060,0.00000062,0.
 00006849,0.00016488,-0.00000802,-0.00034162,0.00091630,-0.00090508,0.0
 0065973,0.00012185,0.00099816,0.05452837,-0.14202661,0.23282954||0.000
 00094,-0.00000316,-0.00000506,-0.00000391,-0.00000268,0.00000282,-0.00
 000127,0.00000188,-0.00000192,-0.00000148,-0.00000091,-0.00000066,-0.0
 0000066,-0.00000089,0.00000028,-0.00000146,-0.00000154,0.00000062,-0.0
 0000156,-0.00000143,-0.00000071,-0.00000231,-0.00000063,0.00000161,-0.
 00000069,0.00000043,-0.00000075,0.00000213,0.00000028,-0.00000306,-0.0
 0000067,-0.00000216,0.00000022,0.00000078,-0.00000129,-0.00000314,-0.0
 0000117,-0.00000148,-0.00000196,0.00000034,0.00000056,0.00000108,-0.00
 000161,0.00000131,-0.00000331,-0.00000158,-0.00000205,0.00000198,0.000
 00059,0.00000297,-0.00000198,-0.00000362,-0.00000119,0.00000090,0.0000
 0389,-0.00000097,0.00000234,0.00000143,0.00000285,-0.00000021,-0.00000
 062,0.00000061,0.00000048,0.00000023,-0.00000252,0.00000241,-0.0000005
 8,-0.00000046,0.00000099,0.00000251,-0.00000034,-0.00000185,-0.0000039
 6,-0.00000283,0.00000107,-0.00000363,-0.00000046,-0.00000219,0.0000019
 4,0.00000063,-0.00000273,0.00000315,-0.00000282,0.00000321,-0.00000165
 ,0.00000327,-0.00000671,0.00000160,-0.00000271,0.00000397,0.00000023,0
 .00000375,-0.00000338,-0.00000118,-0.00000201,-0.00000093,-0.00000058,
 0.00000163,0.00000347,-0.00000185,0.00000248,0.00000097,-0.00000035,-0
 .00000170,-0.00000106,0.00000184,-0.00000492,0.00001178,0.00001092,-0.
 00000060,-0.00000747,-0.00001360,0.00000247,0.00000232,0.00000271,0.00
 000035,0.00000120,-0.00000111,0.00000038,-0.00000007,0.00000337,0.0000
 0153,-0.00000089,-0.00000406,0.00000036,-0.00000027,0.00000414,-0.0000
 0040,0.00000151,-0.00000333,0.00000127,0.00000285,0.00000569,0.0000007
 5,0.00000041,-0.00000020,0.00000026,0.00000382,-0.00000068,0.00000204,
 -0.00000081,0.00000269,0.00000212,0.00000193,0.00000104,0.00000429,-0.
 00000236,-0.00000096,0.00000345,-0.00000324,0.00000168,0.00000236,0.00
 000016,0.00000135,-0.00000194,-0.00000121,0.00000123,0.00000023,-0.000
 00333,0.00000110,0.00000328,0.00000113,0.00000133,-0.00000123,0.000003
 74,0.00000057,-0.00000028,0.00000010,0.00000009,-0.00000104,0.00000019
 ,-0.00000148,-0.00000119,-0.00000017,-0.00000141,-0.00000184,-0.000000
 61,-0.00000151,-0.00000162,-0.00000055,-0.00000096,-0.00000127,-0.0000
 0038,0.00000030,0.00000002,-0.00000093,0.00000093,-0.00000017,-0.00000
 158,0.00000056,0.00000003,-0.00000240,0.00000049,-0.00000093,-0.000001
 72,-0.00000084,-0.00000176,-0.00000137,-0.00000007,0.00000131,0.000000
 76,-0.00000133,0.00000127,0.00000183,-0.00000062,-0.00000087,0.0000003
 7,0.00000002,-0.00000009,0.00000098,-0.00000060,-0.00000057,-0.0000001
 7,0.00000062,-0.00000069,-0.00000165,0.00000027,-0.00000100,-0.0000015
 8,0.00000122,-0.00000200,0.00000151,-0.00000118,-0.00000019,-0.0000018
 9,-0.00000131,-0.00000096,0.00000079,-0.00000056,-0.00000097,0.0000005
 7,-0.00000041,-0.00000023,0.00000088,-0.00000018,0.00000115,-0.0000005
 3,0.00000035,0.00000011,-0.00000145,0.00000028,-0.00000067,0.00000013,
 0.00000120,0.00000041,0.00000121,-0.00000031,0.00000032,0.00000098,-0.
 00000049,0.00000066,0.00000108,0.00000040,0.00000198,0.00000136,0.0000
 0124,0.00000187,0.00000276,0.00000065,0.00000103,0.00000156,0.00000172
 ,0.00000127,0.00000116,0.00000124,0.00000223,0.00000053,0.00000192,0.0
 0000152,0.00000040,0.00000058,0.00000091,0.00000006,0.00000012,-0.0000
 0025,-0.00000025|||@


 IT IS NOT EASY TO DESCRIBE
     THE SEA WITH THE MOUTH

                   -- KOKYU
 Job cpu time:       0 days 13 hours 55 minutes 50.0 seconds.
 File lengths (MBytes):  RWF=  16524 Int=      0 D2E=      0 Chk=    121 Scr=      1
 Normal termination of Gaussian 09 at Tue Jul 02 09:30:55 2024.
