 Entering Link 1 = C:\G09W\l1.exe PID=     11012.
  
 Copyright (c) 1988,1990,1992,1993,1995,1998,2003,2009,2013,
            Gaussian, Inc.  All Rights Reserved.
  
 This is part of the Gaussian(R) 09 program.  It is based on
 the Gaussian(R) 03 system (copyright 2003, Gaussian, Inc.),
 the Gaussian(R) 98 system (copyright 1998, Gaussian, Inc.),
 the Gaussian(R) 94 system (copyright 1995, Gaussian, Inc.),
 the Gaussian 92(TM) system (copyright 1992, Gaussian, Inc.),
 the Gaussian 90(TM) system (copyright 1990, Gaussian, Inc.),
 the Gaussian 88(TM) system (copyright 1988, Gaussian, Inc.),
 the Gaussian 86(TM) system (copyright 1986, Carnegie Mellon
 University), and the Gaussian 82(TM) system (copyright 1983,
 Carnegie Mellon University). Gaussian is a federally registered
 trademark of Gaussian, Inc.
  
 This software contains proprietary and confidential information,
 including trade secrets, belonging to Gaussian, Inc.
  
 This software is provided under written license and may be
 used, copied, transmitted, or stored only in accord with that
 written license.
  
 The following legend is applicable only to US Government
 contracts under FAR:
  
                    RESTRICTED RIGHTS LEGEND
  
 Use, reproduction and disclosure by the US Government is
 subject to restrictions as set forth in subparagraphs (a)
 and (c) of the Commercial Computer Software - Restricted
 Rights clause in FAR 52.227-19.
  
 Gaussian, Inc.
 340 Quinnipiac St., Bldg. 40, Wallingford CT 06492
  
  
 ---------------------------------------------------------------
 Warning -- This program may not be used in any manner that
 competes with the business of Gaussian, Inc. or will provide
 assistance to any competitor of Gaussian, Inc.  The licensee
 of this program is prohibited from giving any competitor of
 Gaussian, Inc. access to this program.  By using this program,
 the user acknowledges that Gaussian, Inc. is engaged in the
 business of creating and licensing software in the field of
 computational chemistry and represents and warrants to the
 licensee that it is not a competitor of Gaussian, Inc. and that
 it will not use this program in any manner prohibited above.
 ---------------------------------------------------------------
  

 Cite this work as:
 Gaussian 09, Revision D.01,
 M. J. Frisch, G. W. Trucks, H. B. Schlegel, G. E. Scuseria, 
 M. A. Robb, J. R. Cheeseman, G. Scalmani, V. Barone, B. Mennucci, 
 G. A. Petersson, H. Nakatsuji, M. Caricato, X. Li, H. P. Hratchian, 
 A. F. Izmaylov, J. Bloino, G. Zheng, J. L. Sonnenberg, M. Hada, 
 M. Ehara, K. Toyota, R. Fukuda, J. Hasegawa, M. Ishida, T. Nakajima, 
 Y. Honda, O. Kitao, H. Nakai, T. Vreven, J. A. Montgomery, Jr., 
 J. E. Peralta, F. Ogliaro, M. Bearpark, J. J. Heyd, E. Brothers, 
 K. N. Kudin, V. N. Staroverov, T. Keith, R. Kobayashi, J. Normand, 
 K. Raghavachari, A. Rendell, J. C. Burant, S. S. Iyengar, J. Tomasi, 
 M. Cossi, N. Rega, J. M. Millam, M. Klene, J. E. Knox, J. B. Cross, 
 V. Bakken, C. Adamo, J. Jaramillo, R. Gomperts, R. E. Stratmann, 
 O. Yazyev, A. J. Austin, R. Cammi, C. Pomelli, J. W. Ochterski, 
 R. L. Martin, K. Morokuma, V. G. Zakrzewski, G. A. Voth, 
 P. Salvador, J. J. Dannenberg, S. Dapprich, A. D. Daniels, 
 O. Farkas, J. B. Foresman, J. V. Ortiz, J. Cioslowski, 
 and D. J. Fox, Gaussian, Inc., Wallingford CT, 2013.
 
 ******************************************
 Gaussian 09:  EM64W-G09RevD.01 13-Apr-2013
                30-Apr-2024 
 ******************************************
 %nprocshared=15
 Will use up to   15 processors via shared memory.
 %mem=50GB
 %chk=D:\Yaroslav\pink-mystery\monomer-radical\uv-50_states\monomer_optav-2.chk
 ----------------------------------------------------------------------
 # td=(nstates=60) uwb97xd/cc-pvdz scrf=(cpcm,solvent=n,n-dimethylforma
 mide) geom=connectivity guess=read
 ----------------------------------------------------------------------
 1/38=1,57=2/1;
 2/12=2,17=6,18=5,40=1/2;
 3/5=16,11=2,16=1,25=1,30=1,70=2101,72=148,74=-58,116=2/1,2,8,3;
 4/5=1/1;
 5/5=2,38=6,53=148/2;
 8/6=1,10=1,108=60/1;
 9/41=60,42=1,70=2/14;
 6/7=2,8=2,9=2,10=2/1;
 99/5=1,9=1/99;
 -----------------------
 monomer-radical-neutral
 -----------------------
 Symbolic Z-matrix:
 Charge =  0 Multiplicity = 2
 C                    -2.75492   2.95047  -2.15487 
 C                    -1.32777   2.94098  -2.18472 
 H                     4.48935  -2.90779  -0.6552 
 H                     3.35025  -4.04294  -2.56152 
 C                    -3.42988   2.00086  -1.44354 
 C                     3.5015   -2.57489  -0.9794 
 C                     2.86158  -3.21639  -2.04282 
 C                    -0.62165   1.99572  -1.49571 
 C                    -2.72584   0.98905  -0.71077 
 C                     2.88249  -1.52144  -0.31631 
 C                     1.58516  -2.79811  -2.42758 
 H                     1.07446  -3.29377  -3.25546 
 C                    -1.28912   0.9896   -0.71971 
 C                    -3.4105   -0.00036  -0.00007 
 C                     1.59601  -1.07422  -0.69788 
 C                     0.95822  -1.75052  -1.76346 
 C                     0.90659   0.00003   0.00001 
 H                    -0.03838  -1.43254  -2.07509 
 C                    -2.72567  -0.98969   0.71057 
 C                    -1.28894  -0.99006   0.71942 
 C                    -3.42952  -2.00161   1.44341 
 H                     3.38254   1.05964  -0.53481 
 C                     1.59551   1.07459   0.6981 
 C                     2.88171   1.52249   0.31646 
 C                    -0.62128  -1.99609   1.49538 
 C                     0.95743   1.75046   1.76374 
 C                    -2.75438  -2.95112   2.15467 
 H                    -0.039     1.43197   2.07538 
 C                    -1.32721  -2.94144   2.18443 
 C                     3.50026   2.57619   0.97961 
 H                     4.48791   2.90964   0.65536 
 C                     1.58391   2.79828   2.42795 
 C                     2.86008   3.21724   2.04315 
 H                     1.07301   3.29358   3.25592 
 H                     3.34835   4.044     2.56191 
 H                     3.38318  -1.05826   0.53486 
 H                    -0.79852   3.69596  -2.76867 
 H                     0.46793   1.99642  -1.53478 
 H                    -4.52185   1.99186  -1.42185 
 H                    -3.30065   3.71573  -2.70937 
 H                    -4.50343  -0.00043  -0.00004 
 H                     0.46831  -1.99661   1.53439 
 H                    -0.79783  -3.69636   2.76834 
 H                    -4.52149  -1.99271   1.42184 
 H                    -3.29995  -3.71644   2.70925 
 C                    -0.58114  -0.00017  -0.00013 
 
                          Input orientation:                          
 ---------------------------------------------------------------------
 Center     Atomic      Atomic             Coordinates (Angstroms)
 Number     Number       Type             X           Y           Z
 ---------------------------------------------------------------------
      1          6           0       -2.754919    2.950469   -2.154866
      2          6           0       -1.327769    2.940982   -2.184719
      3          1           0        4.489352   -2.907790   -0.655200
      4          1           0        3.350252   -4.042943   -2.561520
      5          6           0       -3.429880    2.000861   -1.443542
      6          6           0        3.501497   -2.574887   -0.979399
      7          6           0        2.861581   -3.216387   -2.042824
      8          6           0       -0.621655    1.995715   -1.495715
      9          6           0       -2.725840    0.989053   -0.710766
     10          6           0        2.882489   -1.521439   -0.316315
     11          6           0        1.585157   -2.798111   -2.427579
     12          1           0        1.074461   -3.293770   -3.255458
     13          6           0       -1.289116    0.989598   -0.719711
     14          6           0       -3.410499   -0.000364   -0.000066
     15          6           0        1.596014   -1.074223   -0.697885
     16          6           0        0.958221   -1.750525   -1.763462
     17          6           0        0.906593    0.000035    0.000006
     18          1           0       -0.038378   -1.432542   -2.075093
     19          6           0       -2.725673   -0.989691    0.710568
     20          6           0       -1.288936   -0.990057    0.719415
     21          6           0       -3.429519   -2.001605    1.443413
     22          1           0        3.382539    1.059643   -0.534815
     23          6           0        1.595510    1.074588    0.698097
     24          6           0        2.881713    1.522493    0.316465
     25          6           0       -0.621279   -1.996088    1.495382
     26          6           0        0.957433    1.750455    1.763739
     27          6           0       -2.754377   -2.951124    2.154670
     28          1           0       -0.038998    1.431970    2.075381
     29          6           0       -1.327211   -2.941444    2.184427
     30          6           0        3.500258    2.576185    0.979614
     31          1           0        4.487908    2.909637    0.655363
     32          6           0        1.583905    2.798281    2.427947
     33          6           0        2.860078    3.217240    2.043155
     34          1           0        1.073013    3.293583    3.255917
     35          1           0        3.348350    4.043998    2.561911
     36          1           0        3.383185   -1.058256    0.534862
     37          1           0       -0.798523    3.695958   -2.768670
     38          1           0        0.467929    1.996419   -1.534777
     39          1           0       -4.521851    1.991858   -1.421855
     40          1           0       -3.300648    3.715732   -2.709374
     41          1           0       -4.503431   -0.000430   -0.000038
     42          1           0        0.468309   -1.996608    1.534395
     43          1           0       -0.797827   -3.696355    2.768339
     44          1           0       -4.521494   -1.992713    1.421840
     45          1           0       -3.299953   -3.716442    2.709249
     46          6           0       -0.581143   -0.000169   -0.000125
 ---------------------------------------------------------------------
                    Distance matrix (angstroms):
                    1          2          3          4          5
     1  C    0.000000
     2  C    1.427493   0.000000
     3  H    9.436506   8.389664   0.000000
     4  H    9.292271   8.414338   2.494028   0.000000
     5  C    1.365030   2.419099   9.350431   9.151373   0.000000
     6  C    8.429356   7.429632   1.091689   2.163601   8.318467
     7  C    8.341927   7.448757   2.161103   1.091348   8.195200
     8  C    2.428343   1.366329   7.132546   7.305982   2.808714
     9  C    2.435862   2.817298   8.200455   8.103405   1.434012
    10  C    7.426884   6.413300   2.149143   3.408479   7.315958
    11  C    7.208107   6.440599   3.404072   2.164049   7.010639
    12  H    7.407157   6.766781   4.309501   2.494401   7.183679
    13  C    2.837828   2.440419   6.970256   7.088192   2.475774
    14  C    3.712191   4.214497   8.443338   8.283191   2.467569
    15  C    6.103405   5.184695   3.425667   3.919667   5.939003
    16  C    6.003328   5.235786   3.877678   3.407916   5.781927
    17  C    5.172543   4.291220   4.660569   5.373878   4.989201
    18  H    5.157203   4.560950   4.969184   4.305069   4.867176
    19  C    4.872005   5.078092   7.589533   7.546243   3.752266
    20  C    5.092970   4.887593   6.241465   6.450328   4.267038
    21  C    6.158388   6.481502   8.242200   8.134608   4.935003
    22  H    6.623305   5.333725   4.120686   5.490443   6.936910
    23  C    5.530331   4.509946   5.105396   6.316118   5.540681
    24  C    6.318086   5.097820   4.812073   6.283026   6.569829
    25  C    6.507315   6.198139   5.619141   6.034992   5.700975
    26  C    5.529652   4.714851   6.326528   7.615570   5.440392
    27  C    7.307592   7.455361   7.769740   7.791086   6.158375
    28  H    5.251386   4.699628   6.840727   7.934895   4.919811
    29  C    7.455364   7.327508   6.472791   6.753960   6.481493
    30  C    7.006589   5.784110   5.807315   7.508328   7.364068
    31  H    7.769015   6.472182   5.963223   7.744737   8.241519
    32  C    6.312744   5.456638   7.106803   8.649688   6.384540
    33  C    7.015892   5.957290   6.888515   8.611246   7.293847
    34  H    6.636819   5.957231   8.088587   9.636027   6.635668
    35  H    7.790615   6.753756   7.744613   9.573304   8.134031
    36  H    7.809023   6.751527   2.461834   4.300816   7.725939
    37  H    2.181741   1.091370   8.719969   8.783270   3.399023
    38  H    3.417816   2.130529   6.402871   6.770220   3.898878
    39  H    2.139694   3.418326  10.285722   9.984371   1.092224
    40  H    1.091295   2.183517  10.429514  10.220243   2.135372
    41  H    4.050726   4.848666   9.473760   9.196926   2.690982
    42  H    6.962285   6.437197   4.668336   5.410139   6.328013
    43  H    8.499907   8.298667   6.347970   6.762698   7.558169
    44  H    6.352059   6.895541   9.292298   9.057317   5.034945
    45  H    8.270694   8.494806   8.523304   8.491928   7.067540
    46  C    4.251409   3.739020   5.881607   6.193596   3.768670
                    6          7          8          9         10
     6  C    0.000000
     7  C    1.397099   0.000000
     8  C    6.177166   6.292715   0.000000
     9  C    7.180081   7.118945   2.461120   0.000000
    10  C    1.390181   2.419528   5.102978   6.157233   0.000000
    11  C    2.412347   1.397230   5.359026   5.989553   2.787543
    12  H    3.404078   2.161081   5.826848   6.265805   3.879264
    13  C    5.976869   6.055511   1.435255   1.436753   4.885726
    14  C    7.440629   7.338573   3.741516   1.397425   6.481927
    15  C    2.441744   2.828319   3.870285   4.789122   1.414432
    16  C    2.786141   2.418589   4.074556   4.710176   2.418579
    17  C    3.784573   4.282581   2.924972   3.831177   2.513784
    18  H    3.877656   3.404836   3.525456   3.866259   3.410670
    19  C    6.644282   6.614889   4.266993   2.436313   5.726144
    20  C    5.324088   5.460156   3.777155   2.833193   4.330808
    21  C    7.364622   7.294346   5.700978   3.752291   6.570286
    22  H    3.663553   4.563980   4.222928   6.111320   2.638139
    23  C    4.445835   5.246718   3.252246   4.546018   3.069968
    24  C    4.341880   5.293735   3.972596   5.725767   3.109009
    25  C    4.843226   5.112567   4.988101   4.267005   3.972899
    26  C    5.718886   6.541041   3.630111   4.502156   4.328713
    27  C    7.007132   7.016289   6.507306   4.872015   6.318546
    28  H    6.158060   6.854210   3.661970   3.895884   4.793530
    29  C    5.784512   5.957451   6.198128   5.078101   5.098206
    30  C    5.511015   6.564825   4.842971   6.643845   4.341843
    31  H    5.807362   6.888636   5.618720   7.589012   4.812064
    32  C    6.645156   7.602399   4.572059   5.630163   5.279893
    33  C    6.564753   7.621468   5.112552   6.614483   5.293645
    34  H    7.633766   8.582269   5.209066   5.956234   6.262546
    35  H    7.508260   8.611254   6.034958   7.545786   6.282937
    36  H    2.146428   3.402067   5.430352   6.562260   1.090750
    37  H    7.811221   7.855172   2.131319   3.908562   6.839966
    38  H    5.514329   5.758561   1.090284   3.448759   4.437351
    39  H    9.242567   9.056847   3.900897   2.176446   8.269808
    40  H    9.425173   9.299012   3.407114   3.429230   8.449016
    41  H    8.465569   8.292091   4.614091   2.155004   7.547538
    42  H    3.981683   4.473489   5.129155   4.915029   3.078828
    43  H    5.812695   6.063739   7.114271   6.146092   5.271630
    44  H    8.394835   8.246883   6.295111   4.082071   7.619859
    45  H    7.821061   7.797228   7.581803   5.845322   7.224588
    46  C    4.925048   5.135078   2.494390   2.466434   3.796181
                   11         12         13         14         15
    11  C    0.000000
    12  H    1.091729   0.000000
    13  C    5.052226   5.510331   0.000000
    14  C    6.219066   6.446624   2.449118   0.000000
    15  C    2.442079   3.426308   3.547366   5.167716   0.000000
    16  C    1.389797   2.149691   3.694348   5.025767   1.414078
    17  C    3.766064   4.634153   2.513635   4.317091   1.454780
    18  H    2.150556   2.468976   3.044366   4.210471   2.167102
    19  C    5.630418   5.956439   2.833193   1.397411   4.546192
    20  C    4.629584   5.166465   2.447471   2.449117   3.215394
    21  C    6.384824   6.635881   4.267051   2.467583   5.540864
    22  H    4.657832   5.628617   4.675836   6.896008   2.787768
    23  C    4.976721   5.914782   3.215349   5.167502   2.562451
    24  C    5.280005   6.262682   4.330525   6.481605   3.069994
    25  C    4.571785   5.208646   3.777163   3.741527   3.252174
    26  C    6.216963   7.116898   3.434153   5.025456   3.800814
    27  C    6.312842   6.636783   5.092970   3.712192   5.530436
    28  H    6.388123   7.210427   3.093708   4.210235   4.079862
    29  C    5.456467   5.956888   4.887592   4.214505   4.509931
    30  C    6.645272   7.633918   5.323820   7.440224   4.445856
    31  H    7.106959   8.088782   6.241103   8.442897   5.105435
    32  C    7.409165   8.347077   4.629615   6.218660   4.976671
    33  C    7.602455   8.582364   5.460002   7.338110   5.246695
    34  H    8.347044   9.262355   5.166586   6.446192   5.914711
    35  H    8.649757   9.636139   6.450154   8.282670   6.316101
    36  H    3.877635   4.969331   5.253385   6.896334   2.171152
    37  H    6.926125   7.252677   3.429767   5.305693   5.725084
    38  H    5.003280   5.595956   2.182940   4.624357   3.376656
    39  H    7.826290   7.913196   3.456604   2.688035   6.881370
    40  H    8.147432   8.280875   3.928973   4.600193   7.139121
    41  H    7.126772   7.249602   3.439464   1.092933   6.232435
    42  H    4.193685   4.999274   4.133637   4.624361   2.665630
    43  H    5.786452   6.320892   5.862253   5.305702   4.961931
    44  H    7.263462   7.408413   4.891695   2.688045   6.539171
    45  H    7.148051   7.408906   6.160198   4.600201   6.523831
    46  C    4.291138   4.917929   1.413742   2.829356   2.525959
                   16         17         18         19         20
    16  C    0.000000
    17  C    2.485346   0.000000
    18  H    1.091530   2.692821   0.000000
    19  C    4.502307   3.831163   3.895842   0.000000
    20  C    3.434051   2.513599   3.093375   1.436764   0.000000
    21  C    5.440529   4.989173   4.919712   1.434026   2.475782
    22  H    3.909467   2.745744   4.504011   6.562088   5.253289
    23  C    3.800878   1.454855   4.079936   4.788949   3.547287
    24  C    4.328806   2.513787   4.793612   6.157042   4.885651
    25  C    3.629763   2.924901   3.661373   2.461146   1.435266
    26  C    4.969709   2.485419   5.085248   4.709867   3.694211
    27  C    5.529609   5.172486   5.251061   2.435872   2.837826
    28  H    5.085218   2.692910   5.043002   3.865926   3.044208
    29  C    4.714585   4.291139   4.699084   2.817320   2.440417
    30  C    5.718989   3.784611   6.158171   7.179838   5.976802
    31  H    6.326650   4.660589   6.840845   8.200217   6.970196
    32  C    6.216994   3.766142   6.388195   5.989206   5.052108
    33  C    6.541107   4.282636   6.854304   7.118615   6.055407
    34  H    7.116907   4.634232   7.210487   6.265401   5.510192
    35  H    7.615645   5.373934   7.934999   8.103039   7.088083
    36  H    3.412034   2.745826   4.319612   6.111769   4.676262
    37  H    5.810402   4.922686   5.230715   6.146081   5.862250
    38  H    3.785799   2.556078   3.507999   4.915030   4.133642
    39  H    6.644796   5.954582   5.679328   4.082048   4.891685
    40  H    6.993760   6.232818   6.127760   5.845306   6.160197
    41  H    6.000179   5.410024   5.127719   2.155000   3.439470
    42  H    3.343116   2.555978   3.688266   3.448781   2.182945
    43  H    5.235187   4.922602   5.400042   3.908585   3.429771
    44  H    6.342876   5.954559   5.713201   2.176449   3.456609
    45  H    6.480896   6.232754   6.224468   3.429241   3.928970
    46  C    2.922797   1.487735   2.579104   2.466425   1.413714
                   21         22         23         24         25
    21  C    0.000000
    22  H    7.725850   0.000000
    23  C    5.938803   2.171121   0.000000
    24  C    7.315800   1.090749   1.414418   0.000000
    25  C    2.808726   5.430446   3.870255   5.103059   0.000000
    26  C    5.781515   3.411994   1.414048   2.418557   4.074425
    27  C    1.365023   7.809053   6.103236   7.426827   2.428345
    28  H    4.866668   4.319568   2.167084   3.410650   3.525200
    29  C    2.419111   6.751646   5.184592   6.413350   1.366317
    30  C    8.318238   2.146451   2.441743   1.390191   6.177278
    31  H    9.350239   2.461877   3.425666   2.149158   7.132710
    32  C    7.010181   3.877615   2.442055   2.787524   5.358963
    33  C    8.194820   3.402075   2.828298   2.419523   6.292749
    34  H    7.183104   4.969310   3.426279   3.879244   5.826725
    35  H    9.150948   4.300843   3.919648   3.408484   7.306030
    36  H    6.937457   2.372701   2.787733   2.638075   4.223489
    37  H    7.558175   5.424162   4.962000   5.271255   7.114277
    38  H    6.328026   3.220625   2.665884   3.078645   5.129166
    39  H    5.034947   8.008448   6.538936   7.619371   6.295112
    40  H    7.067545   7.513221   6.523715   7.224096   7.581812
    41  H    2.691012   7.974852   6.232187   7.547173   4.614113
    42  H    3.898893   4.702663   3.376718   4.437561   1.090286
    43  H    3.399030   7.141835   5.725021   6.840108   2.131314
    44  H    1.092224   8.695925   6.881125   8.269582   3.900909
    45  H    2.135367   8.831231   7.138926   8.448956   3.407108
    46  C    3.768660   4.137616   2.525952   3.796063   2.494363
                   26         27         28         29         30
    26  C    0.000000
    27  C    6.002933   0.000000
    28  H    1.091526   5.156654   0.000000
    29  C    5.235504   1.427509   4.560498   0.000000
    30  C    2.786151   8.429256   3.877663   7.429688   0.000000
    31  H    3.877686   9.436478   4.969188   8.389803   1.091687
    32  C    1.389812   7.207706   2.150563   6.440368   2.412343
    33  C    2.418592   8.341658   3.404831   7.448674   1.397104
    34  H    2.149697   7.406620   2.468974   6.766442   3.404076
    35  H    3.407917   9.291977   4.305058   8.414260   2.163611
    36  H    3.909382   6.623926   4.503972   5.334350   3.663424
    37  H    5.235560   8.499902   5.400680   8.298662   5.812318
    38  H    3.343698   6.962288   3.689014   6.437196   3.981622
    39  H    6.342621   6.352051   5.713152   6.895539   8.394208
    40  H    6.480918   8.270689   6.224773   8.494806   7.820455
    41  H    5.999796   4.050747   5.127407   4.848693   8.465088
    42  H    3.785806   3.417828   3.507874   2.130528   5.514611
    43  H    5.810155   2.181753   5.230271   1.091371   7.811392
    44  H    6.644309   2.139694   5.678762   3.418343   9.242234
    45  H    6.993304   1.091295   6.127133   2.183522   9.425055
    46  C    2.922861   4.251379   2.579277   3.738982   4.924969
                   31         32         33         34         35
    31  H    0.000000
    32  C    3.404069   0.000000
    33  C    2.161114   1.397215   0.000000
    34  H    4.309502   1.091728   2.161070   0.000000
    35  H    2.494051   2.164029   1.091350   2.494379   0.000000
    36  H    4.120571   4.657688   4.563820   5.628458   5.490276
    37  H    6.347334   5.786761   6.063678   6.321408   6.762601
    38  H    4.668074   4.194230   4.473743   4.999951   5.410384
    39  H    9.291550   7.263026   8.246256   7.408005   9.056585
    40  H    8.522490   7.147911   7.796766   7.408900   8.491370
    41  H    9.473237   7.126259   8.291521   7.249034   9.196273
    42  H    6.403211   5.003394   5.758786   5.596019   6.770476
    43  H    8.720252   6.925952   7.855187   7.252380   8.783306
    44  H   10.285418   7.825712   9.056337   7.912475   9.983790
    45  H   10.429484   8.146951   9.298689   8.280225  10.219886
    46  C    5.881488   4.291187   5.135048   4.918012   6.193563
                   36         37         38         39         40
    36  H    0.000000
    37  H    7.141607   0.000000
    38  H    4.702464   2.452514   0.000000
    39  H    8.696064   4.310573   4.991059   0.000000
    40  H    8.831175   2.502905   4.305564   2.474022   0.000000
    41  H    7.975201   5.920722   5.572903   2.447674   4.753635
    42  H    3.221191   7.247519   5.036277   7.039103   8.052666
    43  H    5.424836   9.236058   7.247525   7.986353   9.550313
    44  H    8.008988   7.986355   7.039111   4.895243   7.151485
    45  H    7.513870   9.550310   8.052669   7.151485   9.197754
    46  C    4.137832   4.623143   2.728016   4.638822   5.342626
                   41         42         43         44         45
    41  H    0.000000
    42  H    5.572918   0.000000
    43  H    5.920750   2.452521   0.000000
    44  H    2.447704   4.991073   4.310586   0.000000
    45  H    4.753667   4.305567   2.502904   2.474031   0.000000
    46  C    3.922289   2.727979   4.623109   4.638813   5.342595
                   46
    46  C    0.000000
 Stoichiometry    C27H19(2)
 Framework group  C1[X(C27H19)]
 Deg. of freedom   132
 Full point group                 C1      NOp   1
 Largest Abelian subgroup         C1      NOp   1
 Largest concise Abelian subgroup C1      NOp   1
                         Standard orientation:                         
 ---------------------------------------------------------------------
 Center     Atomic      Atomic             Coordinates (Angstroms)
 Number     Number       Type             X           Y           Z
 ---------------------------------------------------------------------
      1          6           0       -2.754919    2.950469   -2.154866
      2          6           0       -1.327769    2.940982   -2.184719
      3          1           0        4.489352   -2.907790   -0.655200
      4          1           0        3.350252   -4.042943   -2.561520
      5          6           0       -3.429880    2.000861   -1.443542
      6          6           0        3.501497   -2.574887   -0.979399
      7          6           0        2.861581   -3.216387   -2.042824
      8          6           0       -0.621655    1.995715   -1.495715
      9          6           0       -2.725840    0.989053   -0.710766
     10          6           0        2.882489   -1.521439   -0.316315
     11          6           0        1.585157   -2.798111   -2.427579
     12          1           0        1.074461   -3.293770   -3.255458
     13          6           0       -1.289116    0.989598   -0.719711
     14          6           0       -3.410499   -0.000364   -0.000066
     15          6           0        1.596014   -1.074223   -0.697885
     16          6           0        0.958221   -1.750525   -1.763462
     17          6           0        0.906593    0.000035    0.000006
     18          1           0       -0.038378   -1.432542   -2.075093
     19          6           0       -2.725673   -0.989691    0.710568
     20          6           0       -1.288936   -0.990057    0.719415
     21          6           0       -3.429519   -2.001605    1.443413
     22          1           0        3.382539    1.059643   -0.534815
     23          6           0        1.595510    1.074588    0.698097
     24          6           0        2.881713    1.522493    0.316465
     25          6           0       -0.621279   -1.996088    1.495382
     26          6           0        0.957433    1.750455    1.763739
     27          6           0       -2.754377   -2.951124    2.154670
     28          1           0       -0.038998    1.431970    2.075381
     29          6           0       -1.327211   -2.941444    2.184427
     30          6           0        3.500258    2.576185    0.979614
     31          1           0        4.487908    2.909637    0.655362
     32          6           0        1.583905    2.798281    2.427947
     33          6           0        2.860078    3.217240    2.043155
     34          1           0        1.073013    3.293583    3.255917
     35          1           0        3.348350    4.043998    2.561911
     36          1           0        3.383185   -1.058256    0.534862
     37          1           0       -0.798523    3.695958   -2.768670
     38          1           0        0.467928    1.996419   -1.534777
     39          1           0       -4.521851    1.991858   -1.421855
     40          1           0       -3.300648    3.715732   -2.709374
     41          1           0       -4.503431   -0.000430   -0.000038
     42          1           0        0.468309   -1.996608    1.534395
     43          1           0       -0.797827   -3.696355    2.768339
     44          1           0       -4.521494   -1.992713    1.421840
     45          1           0       -3.299953   -3.716442    2.709249
     46          6           0       -0.581143   -0.000169   -0.000125
 ---------------------------------------------------------------------
 Rotational constants (GHZ):      0.2151750      0.1881337      0.1463930
 Standard basis: CC-pVDZ (5D, 7F)
 There are   500 symmetry adapted cartesian basis functions of A   symmetry.
 There are   473 symmetry adapted basis functions of A   symmetry.
   473 basis functions,  1024 primitive gaussians,   500 cartesian basis functions
    91 alpha electrons       90 beta electrons
       nuclear repulsion energy      2236.5534236486 Hartrees.
 NAtoms=   46 NActive=   46 NUniq=   46 SFac= 1.00D+00 NAtFMM=   60 NAOKFM=F Big=F
 Integral buffers will be    131072 words long.
 Raffenetti 2 integral format.
 Two-electron integral symmetry is turned on.
 Nuclear repulsion after empirical dispersion term =     2236.5143085665 Hartrees.
 ------------------------------------------------------------------------------
 Polarizable Continuum Model (PCM)
 =================================
 Model                : C-PCM.
 Atomic radii         : UFF (Universal Force Field).
 Polarization charges : Total charges.
 Charge compensation  : None.
 Solution method      : On-the-fly selection.
 Cavity type          : Scaled VdW (van der Waals Surface) (Alpha=1.100).
 Cavity algorithm     : GePol (No added spheres)
                        Default sphere list used, NSphG=   46.
                        Lebedev-Laikov grids with approx.  5.0 points / Ang**2.
                        Smoothing algorithm: Karplus/York (Gamma=1.0000).
                        Polarization charges: spherical gaussians, with
                                              point-specific exponents (IZeta= 3).
                        Self-potential: point-specific (ISelfS= 7).
                        Self-field    : sphere-specific E.n sum rule (ISelfD= 2).
 Solvent              : n,n-DiMethylFormamide, Eps=  37.219000 Eps(inf)=   2.046330
 ------------------------------------------------------------------------------
 One-electron integrals computed using PRISM.
 NBasis=   473 RedAO= T EigKep=  9.12D-05  NBF=   473
 NBsUse=   473 1.00D-06 EigRej= -1.00D+00 NBFU=   473
 Initial guess from the checkpoint file:  "D:\Yaroslav\pink-mystery\monomer-radical\uv-50_states\monomer_optav-2.chk"
 B after Tr=     0.000000    0.000000    0.000000
         Rot=    1.000000    0.000000    0.000000    0.000000 Ang=   0.00 deg.
 Initial guess <Sx>= 0.0000 <Sy>= 0.0000 <Sz>= 0.5000 <S**2>= 0.7971 S= 0.5233
 Requested convergence on RMS density matrix=1.00D-08 within 128 cycles.
 Requested convergence on MAX density matrix=1.00D-06.
 Requested convergence on             energy=1.00D-06.
 No special actions if energy rises.
 Inv3:  Mode=1 IEnd=    31163187.
 Iteration    1 A*A^-1 deviation from unit magnitude is 5.44D-15 for    792.
 Iteration    1 A*A^-1 deviation from orthogonality  is 3.31D-15 for   2576   2298.
 Iteration    1 A^-1*A deviation from unit magnitude is 5.22D-15 for    792.
 Iteration    1 A^-1*A deviation from orthogonality  is 2.21D-15 for   2593   1380.
 Error on total polarization charges =  0.01510
 SCF Done:  E(UwB97XD) =  -1040.03362053     A.U. after    1 cycles
            NFock=  1  Conv=0.49D-08     -V/T= 2.0069
 <Sx>= 0.0000 <Sy>= 0.0000 <Sz>= 0.5000 <S**2>= 0.7971 S= 0.5233
 <L.S>= 0.000000000000E+00
 Annihilation of the first spin contaminant:
 S**2 before annihilation     0.7971,   after     0.7521
 DoSCS=F DFT=T ScalE2(SS,OS)=  1.000000  1.000000
 ExpMin= 1.22D-01 ExpMax= 6.67D+03 ExpMxC= 2.28D+02 IAcc=3 IRadAn=         5 AccDes= 0.00D+00
 HarFok:  IExCor=  205 AccDes= 0.00D+00 IRadAn=         5 IDoV=-2 UseB2=F ITyADJ=14
 ICtDFT= 12500011 ScaDFX=  1.000000  1.000000  1.000000  1.000000
 Range of M.O.s used for correlation:    28   473
 NBasis=   473 NAE=    91 NBE=    90 NFC=    27 NFV=     0
 NROrb=    446 NOA=    64 NOB=    63 NVA=   382 NVB=   383

 **** Warning!!: The largest alpha MO coefficient is  0.19406996D+02


 **** Warning!!: The largest beta MO coefficient is  0.19525682D+02

 Would need an additional         34875800000 words for in-memory AO integral storage.
 NEqPCM:  Using non-equilibrium solvation (IEInf=1, Eps=  37.2190, EpsInf=   2.0463)
 Inv3:  Mode=1 IEnd=    31163187.
 Iteration    1 A*A^-1 deviation from unit magnitude is 5.44D-15 for    792.
 Iteration    1 A*A^-1 deviation from orthogonality  is 3.31D-15 for   2576   2298.
 Iteration    1 A^-1*A deviation from unit magnitude is 5.22D-15 for    792.
 Iteration    1 A^-1*A deviation from orthogonality  is 2.21D-15 for   2593   1380.
 Orbital symmetries:
 Alpha Orbitals:
       Occupied  (A) (A) (A) (A) (A) (A) (A) (A) (A) (A) (A) (A)
                 (A) (A) (A) (A) (A) (A) (A) (A) (A) (A) (A) (A)
                 (A) (A) (A) (A) (A) (A) (A) (A) (A) (A) (A) (A)
                 (A) (A) (A) (A) (A) (A) (A) (A) (A) (A) (A) (A)
                 (A) (A) (A) (A) (A) (A) (A) (A) (A) (A) (A) (A)
                 (A) (A) (A) (A) (A) (A) (A) (A) (A) (A) (A) (A)
                 (A) (A) (A) (A) (A) (A) (A) (A) (A) (A) (A) (A)
                 (A) (A) (A) (A) (A) (A) (A)
       Virtual   (A) (A) (A) (A) (A) (A) (A) (A) (A) (A) (A) (A)
                 (A) (A) (A) (A) (A) (A) (A) (A) (A) (A) (A) (A)
                 (A) (A) (A) (A) (A) (A) (A) (A) (A) (A) (A) (A)
                 (A) (A) (A) (A) (A) (A) (A) (A) (A) (A) (A) (A)
                 (A) (A) (A) (A) (A) (A) (A) (A) (A) (A) (A) (A)
                 (A) (A) (A) (A) (A) (A) (A) (A) (A) (A) (A) (A)
                 (A) (A) (A) (A) (A) (A) (A) (A) (A) (A) (A) (A)
                 (A) (A) (A) (A) (A) (A) (A) (A) (A) (A) (A) (A)
                 (A) (A) (A) (A) (A) (A) (A) (A) (A) (A) (A) (A)
                 (A) (A) (A) (A) (A) (A) (A) (A) (A) (A) (A) (A)
                 (A) (A) (A) (A) (A) (A) (A) (A) (A) (A) (A) (A)
                 (A) (A) (A) (A) (A) (A) (A) (A) (A) (A) (A) (A)
                 (A) (A) (A) (A) (A) (A) (A) (A) (A) (A) (A) (A)
                 (A) (A) (A) (A) (A) (A) (A) (A) (A) (A) (A) (A)
                 (A) (A) (A) (A) (A) (A) (A) (A) (A) (A) (A) (A)
                 (A) (A) (A) (A) (A) (A) (A) (A) (A) (A) (A) (A)
                 (A) (A) (A) (A) (A) (A) (A) (A) (A) (A) (A) (A)
                 (A) (A) (A) (A) (A) (A) (A) (A) (A) (A) (A) (A)
                 (A) (A) (A) (A) (A) (A) (A) (A) (A) (A) (A) (A)
                 (A) (A) (A) (A) (A) (A) (A) (A) (A) (A) (A) (A)
                 (A) (A) (A) (A) (A) (A) (A) (A) (A) (A) (A) (A)
                 (A) (A) (A) (A) (A) (A) (A) (A) (A) (A) (A) (A)
                 (A) (A) (A) (A) (A) (A) (A) (A) (A) (A) (A) (A)
                 (A) (A) (A) (A) (A) (A) (A) (A) (A) (A) (A) (A)
                 (A) (A) (A) (A) (A) (A) (A) (A) (A) (A) (A) (A)
                 (A) (A) (A) (A) (A) (A) (A) (A) (A) (A) (A) (A)
                 (A) (A) (A) (A) (A) (A) (A) (A) (A) (A) (A) (A)
                 (A) (A) (A) (A) (A) (A) (A) (A) (A) (A) (A) (A)
                 (A) (A) (A) (A) (A) (A) (A) (A) (A) (A) (A) (A)
                 (A) (A) (A) (A) (A) (A) (A) (A) (A) (A) (A) (A)
                 (A) (A) (A) (A) (A) (A) (A) (A) (A) (A) (A) (A)
                 (A) (A) (A) (A) (A) (A) (A) (A) (A) (A)
 Beta  Orbitals:
       Occupied  (A) (A) (A) (A) (A) (A) (A) (A) (A) (A) (A) (A)
                 (A) (A) (A) (A) (A) (A) (A) (A) (A) (A) (A) (A)
                 (A) (A) (A) (A) (A) (A) (A) (A) (A) (A) (A) (A)
                 (A) (A) (A) (A) (A) (A) (A) (A) (A) (A) (A) (A)
                 (A) (A) (A) (A) (A) (A) (A) (A) (A) (A) (A) (A)
                 (A) (A) (A) (A) (A) (A) (A) (A) (A) (A) (A) (A)
                 (A) (A) (A) (A) (A) (A) (A) (A) (A) (A) (A) (A)
                 (A) (A) (A) (A) (A) (A)
       Virtual   (A) (A) (A) (A) (A) (A) (A) (A) (A) (A) (A) (A)
                 (A) (A) (A) (A) (A) (A) (A) (A) (A) (A) (A) (A)
                 (A) (A) (A) (A) (A) (A) (A) (A) (A) (A) (A) (A)
                 (A) (A) (A) (A) (A) (A) (A) (A) (A) (A) (A) (A)
                 (A) (A) (A) (A) (A) (A) (A) (A) (A) (A) (A) (A)
                 (A) (A) (A) (A) (A) (A) (A) (A) (A) (A) (A) (A)
                 (A) (A) (A) (A) (A) (A) (A) (A) (A) (A) (A) (A)
                 (A) (A) (A) (A) (A) (A) (A) (A) (A) (A) (A) (A)
                 (A) (A) (A) (A) (A) (A) (A) (A) (A) (A) (A) (A)
                 (A) (A) (A) (A) (A) (A) (A) (A) (A) (A) (A) (A)
                 (A) (A) (A) (A) (A) (A) (A) (A) (A) (A) (A) (A)
                 (A) (A) (A) (A) (A) (A) (A) (A) (A) (A) (A) (A)
                 (A) (A) (A) (A) (A) (A) (A) (A) (A) (A) (A) (A)
                 (A) (A) (A) (A) (A) (A) (A) (A) (A) (A) (A) (A)
                 (A) (A) (A) (A) (A) (A) (A) (A) (A) (A) (A) (A)
                 (A) (A) (A) (A) (A) (A) (A) (A) (A) (A) (A) (A)
                 (A) (A) (A) (A) (A) (A) (A) (A) (A) (A) (A) (A)
                 (A) (A) (A) (A) (A) (A) (A) (A) (A) (A) (A) (A)
                 (A) (A) (A) (A) (A) (A) (A) (A) (A) (A) (A) (A)
                 (A) (A) (A) (A) (A) (A) (A) (A) (A) (A) (A) (A)
                 (A) (A) (A) (A) (A) (A) (A) (A) (A) (A) (A) (A)
                 (A) (A) (A) (A) (A) (A) (A) (A) (A) (A) (A) (A)
                 (A) (A) (A) (A) (A) (A) (A) (A) (A) (A) (A) (A)
                 (A) (A) (A) (A) (A) (A) (A) (A) (A) (A) (A) (A)
                 (A) (A) (A) (A) (A) (A) (A) (A) (A) (A) (A) (A)
                 (A) (A) (A) (A) (A) (A) (A) (A) (A) (A) (A) (A)
                 (A) (A) (A) (A) (A) (A) (A) (A) (A) (A) (A) (A)
                 (A) (A) (A) (A) (A) (A) (A) (A) (A) (A) (A) (A)
                 (A) (A) (A) (A) (A) (A) (A) (A) (A) (A) (A) (A)
                 (A) (A) (A) (A) (A) (A) (A) (A) (A) (A) (A) (A)
                 (A) (A) (A) (A) (A) (A) (A) (A) (A) (A) (A) (A)
                 (A) (A) (A) (A) (A) (A) (A) (A) (A) (A) (A)
   240 initial guesses have been made.
 Convergence on wavefunction:    0.001000000000000
 Iteration     1 Dimension   240 NMult     0 NNew    240
 CISAX will form   240 AO SS matrices at one time.
 New state      1 was old state      3
 New state      2 was old state      1
 New state      3 was old state      2
 New state      4 was old state      7
 New state      5 was old state     35
 New state      6 was old state     15
 New state      7 was old state     10
 New state      8 was old state      9
 New state      9 was old state     16
 New state     10 was old state      4
 New state     11 was old state     14
 New state     12 was old state     24
 New state     13 was old state     11
 New state     14 was old state      8
 New state     15 was old state     12
 New state     16 was old state     57
 New state     17 was old state      6
 New state     18 was old state      5
 New state     19 was old state     84
 New state     20 was old state     96
 New state     21 was old state     40
 New state     22 was old state     67
 New state     23 was old state     17
 New state     24 was old state     18
 New state     25 was old state     19
 New state     26 was old state     27
 New state     27 was old state     21
 New state     28 was old state     74
 New state     29 was old state     66
 New state     30 was old state     20
 New state     31 was old state     33
 New state     32 was old state     38
 New state     33 was old state     32
 New state     34 was old state     22
 New state     35 was old state     36
 New state     36 was old state     77
 New state     37 was old state     26
 New state     38 was old state     71
 New state     39 was old state     23
 New state     40 was old state     30
 New state     41 was old state     63
 New state     42 was old state     25
 New state     43 was old state     29
 New state     44 was old state     50
 New state     45 was old state     41
 New state     46 was old state    122
 New state     47 was old state     31
 New state     48 was old state     45
 New state     49 was old state     28
 New state     50 was old state    166
 New state     51 was old state    115
 New state     52 was old state     34
 New state     53 was old state    146
 New state     54 was old state     78
 New state     55 was old state     68
 New state     56 was old state     37
 New state     57 was old state     70
 New state     58 was old state     42
 New state     59 was old state     76
 New state     60 was old state     88
 Iteration     2 Dimension   360 NMult   240 NNew    120
 New state      6 was old state     10
 New state      7 was old state      6
 New state      8 was old state      7
 New state      9 was old state     12
 New state     10 was old state      8
 New state     11 was old state      9
 New state     12 was old state     13
 New state     13 was old state     11
 New state     15 was old state     16
 New state     16 was old state     15
 New state     17 was old state     19
 New state     18 was old state     20
 New state     19 was old state     21
 New state     20 was old state     17
 New state     21 was old state     18
 New state     25 was old state     26
 New state     26 was old state     25
 New state     28 was old state     33
 New state     29 was old state     28
 New state     30 was old state     29
 New state     31 was old state     34
 New state     32 was old state     30
 New state     33 was old state     32
 New state     34 was old state     31
 New state     35 was old state     36
 New state     36 was old state     35
 New state     37 was old state     44
 New state     38 was old state     37
 New state     39 was old state     38
 New state     42 was old state     39
 New state     43 was old state     50
 New state     44 was old state     42
 New state     46 was old state     43
 New state     47 was old state     53
 New state     49 was old state     46
 New state     50 was old state     47
 New state     51 was old state     55
 New state     52 was old state     49
 New state     53 was old state     51
 New state     54 was old state     52
 New state     55 was old state     59
 New state     57 was old state     54
 New state     58 was old state     57
 New state     59 was old state     58
 Iteration     3 Dimension   480 NMult   360 NNew    120
 New state     49 was old state     51
 New state     50 was old state     49
 New state     51 was old state     50
 New state     53 was old state     54
 New state     54 was old state     53
 New state     58 was old state     59
 New state     59 was old state     58
 Iteration     4 Dimension   600 NMult   480 NNew    120
 No map to state     59
 New state     60 was old state     59
 Iteration     5 Dimension   690 NMult   600 NNew     90
 New state     56 was old state     57
 New state     57 was old state     56
 Iteration     6 Dimension   730 NMult   690 NNew     40
 Iteration     7 Dimension   744 NMult   730 NNew     14
 Iteration     8 Dimension   748 NMult   744 NNew      4
 ***********************************************************************
 Excited states from <AA,BB:AA,BB> singles matrix:
 ***********************************************************************
 
 ExtSpn:  IState=     1 X2= 1.112 Y2= 0.112 X2-Y2-1=-6.66D-16
          S2Grnd=  0.797 Ra=  0.452 Rb=  0.437 T=  0.887 S2Ext=  1.776 S2=  2.573
 ExtSpn:  IState=     2 X2= 1.005 Y2= 0.005 X2-Y2-1=-1.89D-15
          S2Grnd=  0.797 Ra=  0.031 Rb=  0.098 T= -0.074 S2Ext=  0.056 S2=  0.853
 ExtSpn:  IState=     3 X2= 1.006 Y2= 0.006 X2-Y2-1=-1.11D-15
          S2Grnd=  0.797 Ra=  0.090 Rb=  0.045 T=  0.106 S2Ext=  0.242 S2=  1.039
 ExtSpn:  IState=     4 X2= 1.031 Y2= 0.031 X2-Y2-1=-2.44D-15
          S2Grnd=  0.797 Ra=  0.115 Rb=  0.110 T=  0.213 S2Ext=  0.438 S2=  1.235
 ExtSpn:  IState=     5 X2= 1.035 Y2= 0.035 X2-Y2-1=-1.33D-15
          S2Grnd=  0.797 Ra=  0.490 Rb=  0.491 T=  0.982 S2Ext=  1.964 S2=  2.761
 ExtSpn:  IState=     6 X2= 1.014 Y2= 0.014 X2-Y2-1=-7.77D-16
          S2Grnd=  0.797 Ra=  0.422 Rb=  0.431 T= -0.769 S2Ext=  0.084 S2=  0.881
 ExtSpn:  IState=     7 X2= 1.005 Y2= 0.005 X2-Y2-1=-2.22D-15
          S2Grnd=  0.797 Ra=  0.371 Rb=  0.389 T=  0.682 S2Ext=  1.442 S2=  2.239
 ExtSpn:  IState=     8 X2= 1.005 Y2= 0.005 X2-Y2-1= 4.44D-16
          S2Grnd=  0.797 Ra=  0.174 Rb=  0.191 T=  0.294 S2Ext=  0.660 S2=  1.457
 ExtSpn:  IState=     9 X2= 1.029 Y2= 0.029 X2-Y2-1=-1.22D-15
          S2Grnd=  0.797 Ra=  0.245 Rb=  0.247 T=  0.325 S2Ext=  0.818 S2=  1.615
 ExtSpn:  IState=    10 X2= 1.009 Y2= 0.009 X2-Y2-1=-2.33D-15
          S2Grnd=  0.797 Ra=  0.119 Rb=  0.139 T=  0.153 S2Ext=  0.411 S2=  1.208
 ExtSpn:  IState=    11 X2= 1.009 Y2= 0.009 X2-Y2-1= 6.66D-16
          S2Grnd=  0.797 Ra=  0.487 Rb=  0.315 T=  0.767 S2Ext=  1.569 S2=  2.366
 ExtSpn:  IState=    12 X2= 1.004 Y2= 0.004 X2-Y2-1=-1.33D-15
          S2Grnd=  0.797 Ra=  0.104 Rb=  0.064 T= -0.103 S2Ext=  0.065 S2=  0.862
 ExtSpn:  IState=    13 X2= 1.006 Y2= 0.006 X2-Y2-1= 1.11D-15
          S2Grnd=  0.797 Ra=  0.267 Rb=  0.479 T= -0.506 S2Ext=  0.241 S2=  1.038
 ExtSpn:  IState=    14 X2= 1.006 Y2= 0.006 X2-Y2-1= 4.44D-16
          S2Grnd=  0.797 Ra=  0.123 Rb=  0.120 T=  0.052 S2Ext=  0.295 S2=  1.092
 ExtSpn:  IState=    15 X2= 1.020 Y2= 0.020 X2-Y2-1=-2.00D-15
          S2Grnd=  0.797 Ra=  0.478 Rb=  0.471 T=  0.947 S2Ext=  1.896 S2=  2.693
 ExtSpn:  IState=    16 X2= 1.007 Y2= 0.007 X2-Y2-1=-1.11D-16
          S2Grnd=  0.797 Ra=  0.110 Rb=  0.080 T=  0.183 S2Ext=  0.373 S2=  1.170
 ExtSpn:  IState=    17 X2= 1.019 Y2= 0.019 X2-Y2-1=-2.33D-15
          S2Grnd=  0.797 Ra=  0.428 Rb=  0.443 T=  0.868 S2Ext=  1.739 S2=  2.536
 ExtSpn:  IState=    18 X2= 1.012 Y2= 0.012 X2-Y2-1=-5.55D-16
          S2Grnd=  0.797 Ra=  0.363 Rb=  0.355 T=  0.716 S2Ext=  1.434 S2=  2.231
 ExtSpn:  IState=    19 X2= 1.016 Y2= 0.016 X2-Y2-1= 1.33D-15
          S2Grnd=  0.797 Ra=  0.491 Rb=  0.495 T=  0.984 S2Ext=  1.969 S2=  2.767
 ExtSpn:  IState=    20 X2= 1.003 Y2= 0.003 X2-Y2-1= 4.44D-16
          S2Grnd=  0.797 Ra=  0.128 Rb=  0.076 T=  0.038 S2Ext=  0.241 S2=  1.038
 ExtSpn:  IState=    21 X2= 1.001 Y2= 0.001 X2-Y2-1= 1.55D-15
          S2Grnd=  0.797 Ra=  0.091 Rb=  0.136 T= -0.038 S2Ext=  0.189 S2=  0.986
 ExtSpn:  IState=    22 X2= 1.009 Y2= 0.009 X2-Y2-1=-7.77D-16
          S2Grnd=  0.797 Ra=  0.488 Rb=  0.497 T=  0.984 S2Ext=  1.969 S2=  2.766
 ExtSpn:  IState=    23 X2= 1.005 Y2= 0.005 X2-Y2-1=-5.55D-16
          S2Grnd=  0.797 Ra=  0.268 Rb=  0.366 T= -0.429 S2Ext=  0.205 S2=  1.002
 ExtSpn:  IState=    24 X2= 1.007 Y2= 0.007 X2-Y2-1=-1.55D-15
          S2Grnd=  0.797 Ra=  0.455 Rb=  0.239 T= -0.512 S2Ext=  0.182 S2=  0.980
 ExtSpn:  IState=    25 X2= 1.005 Y2= 0.005 X2-Y2-1= 8.88D-16
          S2Grnd=  0.797 Ra=  0.099 Rb=  0.052 T= -0.021 S2Ext=  0.131 S2=  0.928
 ExtSpn:  IState=    26 X2= 1.007 Y2= 0.007 X2-Y2-1=-5.55D-16
          S2Grnd=  0.797 Ra=  0.340 Rb=  0.249 T= -0.510 S2Ext=  0.079 S2=  0.876
 ExtSpn:  IState=    27 X2= 1.006 Y2= 0.006 X2-Y2-1= 0.00D+00
          S2Grnd=  0.797 Ra=  0.378 Rb=  0.422 T= -0.139 S2Ext=  0.662 S2=  1.459
 ExtSpn:  IState=    28 X2= 1.002 Y2= 0.002 X2-Y2-1= 1.11D-15
          S2Grnd=  0.797 Ra=  0.141 Rb=  0.612 T=  0.339 S2Ext=  1.092 S2=  1.889
 ExtSpn:  IState=    29 X2= 1.003 Y2= 0.003 X2-Y2-1= 2.22D-15
          S2Grnd=  0.797 Ra=  0.387 Rb=  0.485 T=  0.483 S2Ext=  1.355 S2=  2.153
 ExtSpn:  IState=    30 X2= 1.002 Y2= 0.002 X2-Y2-1= 1.11D-15
          S2Grnd=  0.797 Ra=  0.492 Rb=  0.440 T=  0.513 S2Ext=  1.444 S2=  2.241
 ExtSpn:  IState=    31 X2= 1.004 Y2= 0.004 X2-Y2-1=-6.66D-16
          S2Grnd=  0.797 Ra=  0.385 Rb=  0.326 T=  0.617 S2Ext=  1.329 S2=  2.126
 ExtSpn:  IState=    32 X2= 1.001 Y2= 0.001 X2-Y2-1= 8.88D-16
          S2Grnd=  0.797 Ra=  0.438 Rb=  0.390 T= -0.224 S2Ext=  0.605 S2=  1.402
 ExtSpn:  IState=    33 X2= 1.003 Y2= 0.003 X2-Y2-1= 1.33D-15
          S2Grnd=  0.797 Ra=  0.286 Rb=  0.472 T=  0.674 S2Ext=  1.433 S2=  2.230
 ExtSpn:  IState=    34 X2= 1.001 Y2= 0.001 X2-Y2-1=-4.44D-16
          S2Grnd=  0.797 Ra=  0.410 Rb=  0.312 T=  0.456 S2Ext=  1.178 S2=  1.975
 ExtSpn:  IState=    35 X2= 1.002 Y2= 0.002 X2-Y2-1=-3.33D-16
          S2Grnd=  0.797 Ra=  0.312 Rb=  0.118 T=  0.190 S2Ext=  0.620 S2=  1.417
 ExtSpn:  IState=    36 X2= 1.001 Y2= 0.001 X2-Y2-1= 1.55D-15
          S2Grnd=  0.797 Ra=  0.265 Rb=  0.396 T=  0.127 S2Ext=  0.788 S2=  1.585
 ExtSpn:  IState=    37 X2= 1.001 Y2= 0.001 X2-Y2-1= 8.88D-16
          S2Grnd=  0.797 Ra=  0.401 Rb=  0.131 T=  0.029 S2Ext=  0.561 S2=  1.358
 ExtSpn:  IState=    38 X2= 1.002 Y2= 0.002 X2-Y2-1=-1.44D-15
          S2Grnd=  0.797 Ra=  0.622 Rb=  0.298 T= -0.305 S2Ext=  0.615 S2=  1.412
 ExtSpn:  IState=    39 X2= 1.003 Y2= 0.003 X2-Y2-1=-4.44D-16
          S2Grnd=  0.797 Ra=  0.251 Rb=  0.615 T=  0.682 S2Ext=  1.548 S2=  2.346
 ExtSpn:  IState=    40 X2= 1.003 Y2= 0.003 X2-Y2-1=-6.66D-16
          S2Grnd=  0.797 Ra=  0.545 Rb=  0.348 T=  0.593 S2Ext=  1.485 S2=  2.282
 ExtSpn:  IState=    41 X2= 1.002 Y2= 0.002 X2-Y2-1=-3.33D-15
          S2Grnd=  0.797 Ra=  0.404 Rb=  0.495 T= -0.822 S2Ext=  0.077 S2=  0.874
 ExtSpn:  IState=    42 X2= 1.004 Y2= 0.004 X2-Y2-1=-2.22D-16
          S2Grnd=  0.797 Ra=  0.494 Rb=  0.406 T=  0.676 S2Ext=  1.575 S2=  2.372
 ExtSpn:  IState=    43 X2= 1.001 Y2= 0.001 X2-Y2-1= 2.22D-16
          S2Grnd=  0.797 Ra=  0.235 Rb=  0.679 T= -0.147 S2Ext=  0.767 S2=  1.564
 ExtSpn:  IState=    44 X2= 1.001 Y2= 0.001 X2-Y2-1= 4.44D-16
          S2Grnd=  0.797 Ra=  0.544 Rb=  0.355 T= -0.573 S2Ext=  0.325 S2=  1.123
 ExtSpn:  IState=    45 X2= 1.003 Y2= 0.003 X2-Y2-1= 0.00D+00
          S2Grnd=  0.797 Ra=  0.545 Rb=  0.201 T=  0.292 S2Ext=  1.038 S2=  1.836
 ExtSpn:  IState=    46 X2= 1.001 Y2= 0.001 X2-Y2-1= 8.88D-16
          S2Grnd=  0.797 Ra=  0.469 Rb=  0.465 T= -0.091 S2Ext=  0.843 S2=  1.640
 ExtSpn:  IState=    47 X2= 1.002 Y2= 0.002 X2-Y2-1=-2.22D-15
          S2Grnd=  0.797 Ra=  0.272 Rb=  0.620 T=  0.319 S2Ext=  1.212 S2=  2.009
 ExtSpn:  IState=    48 X2= 1.002 Y2= 0.002 X2-Y2-1=-1.78D-15
          S2Grnd=  0.797 Ra=  0.088 Rb=  0.685 T= -0.343 S2Ext=  0.431 S2=  1.228
 ExtSpn:  IState=    49 X2= 1.010 Y2= 0.010 X2-Y2-1=-1.22D-15
          S2Grnd=  0.797 Ra=  0.400 Rb=  0.483 T= -0.740 S2Ext=  0.142 S2=  0.939
 ExtSpn:  IState=    50 X2= 1.001 Y2= 0.001 X2-Y2-1= 2.00D-15
          S2Grnd=  0.797 Ra=  0.045 Rb=  0.932 T= -0.200 S2Ext=  0.777 S2=  1.574
 ExtSpn:  IState=    51 X2= 1.002 Y2= 0.002 X2-Y2-1=-2.78D-15
          S2Grnd=  0.797 Ra=  0.806 Rb=  0.108 T=  0.273 S2Ext=  1.186 S2=  1.983
 ExtSpn:  IState=    52 X2= 1.001 Y2= 0.001 X2-Y2-1= 2.22D-16
          S2Grnd=  0.797 Ra=  0.737 Rb=  0.231 T= -0.173 S2Ext=  0.795 S2=  1.592
 ExtSpn:  IState=    53 X2= 1.004 Y2= 0.004 X2-Y2-1=-2.66D-15
          S2Grnd=  0.797 Ra=  0.340 Rb=  0.420 T= -0.126 S2Ext=  0.633 S2=  1.430
 ExtSpn:  IState=    54 X2= 1.001 Y2= 0.001 X2-Y2-1=-4.44D-16
          S2Grnd=  0.797 Ra=  0.623 Rb=  0.316 T=  0.824 S2Ext=  1.762 S2=  2.560
 ExtSpn:  IState=    55 X2= 1.003 Y2= 0.003 X2-Y2-1= 4.44D-16
          S2Grnd=  0.797 Ra=  0.455 Rb=  0.448 T=  0.202 S2Ext=  1.106 S2=  1.903
 ExtSpn:  IState=    56 X2= 1.004 Y2= 0.004 X2-Y2-1=-2.22D-16
          S2Grnd=  0.797 Ra=  0.379 Rb=  0.471 T=  0.139 S2Ext=  0.988 S2=  1.785
 ExtSpn:  IState=    57 X2= 1.001 Y2= 0.001 X2-Y2-1=-2.00D-15
          S2Grnd=  0.797 Ra=  0.191 Rb=  0.731 T=  0.463 S2Ext=  1.385 S2=  2.182
 ExtSpn:  IState=    58 X2= 1.002 Y2= 0.002 X2-Y2-1=-6.66D-16
          S2Grnd=  0.797 Ra=  0.411 Rb=  0.195 T= -0.149 S2Ext=  0.456 S2=  1.253
 ExtSpn:  IState=    59 X2= 1.001 Y2= 0.001 X2-Y2-1=-3.33D-16
          S2Grnd=  0.797 Ra=  0.124 Rb=  0.771 T=  0.491 S2Ext=  1.386 S2=  2.183
 ExtSpn:  IState=    60 X2= 1.006 Y2= 0.006 X2-Y2-1=-6.66D-16
          S2Grnd=  0.797 Ra=  0.473 Rb=  0.484 T=  0.819 S2Ext=  1.776 S2=  2.573
 Ground to excited state transition densities written to RWF  633
 Ground to excited state transition electric dipole moments (Au):
       state          X           Y           Z        Dip. S.      Osc.
         1         0.0519      0.0000      0.0000      0.0027      0.0001
         2         1.2531      0.0000      0.0000      1.5703      0.1125
         3        -0.3981      0.0001      0.0000      0.1585      0.0119
         4        -0.0008      0.0676     -0.0010      0.0046      0.0003
         5         0.0000      0.0501      0.0481      0.0048      0.0004
         6        -1.0749      0.0001      0.0000      1.1555      0.1026
         7        -0.0004     -0.1331     -0.0189      0.0181      0.0016
         8        -0.0004     -0.5741     -0.1821      0.3628      0.0327
         9         0.2126     -0.0008     -0.0001      0.0452      0.0041
        10         0.0758     -0.0014     -0.0002      0.0058      0.0005
        11        -0.0002     -0.1481      0.1057      0.0331      0.0031
        12        -0.0005      1.8495      1.1776      4.8073      0.4689
        13        -0.0003      0.6209      0.3996      0.5452      0.0538
        14         0.0007      0.3164      0.7062      0.5988      0.0615
        15         0.0392     -0.0002     -0.0001      0.0015      0.0002
        16         0.5408     -0.0001     -0.0007      0.2924      0.0305
        17         0.0001     -0.0408     -0.0038      0.0017      0.0002
        18        -0.0749      0.0000      0.0000      0.0056      0.0006
        19        -0.0632     -0.0008      0.0008      0.0040      0.0005
        20         0.0002     -0.9431      0.7145      1.3999      0.1598
        21         0.0002      0.0253     -0.3663      0.1348      0.0156
        22        -0.0510      0.0002      0.0000      0.0026      0.0003
        23         0.0001     -0.3797      0.0305      0.1451      0.0177
        24        -0.0004      1.8781     -1.4677      5.6812      0.7153
        25         1.1668      0.0005     -0.0006      1.3614      0.1726
        26         0.0004     -2.1804      1.3907      6.6882      0.8555
        27         0.0001     -1.0219      0.8253      1.7255      0.2237
        28         0.0025      0.6797     -0.3125      0.5597      0.0747
        29        -0.2489      0.0064     -0.0031      0.0620      0.0083
        30         0.0009     -0.0443     -0.0083      0.0020      0.0003
        31         0.0190     -0.0006      0.0004      0.0004      0.0000
        32        -0.0022     -0.5353      0.2914      0.3714      0.0509
        33         0.0957     -0.0120      0.0063      0.0093      0.0013
        34         0.0000     -0.2241     -0.1857      0.0847      0.0118
        35        -0.0468      0.0001     -0.0003      0.0022      0.0003
        36        -0.0006     -0.0902      0.2390      0.0652      0.0092
        37        -0.0006      0.0565      0.2227      0.0528      0.0075
        38        -0.0044      0.5506      0.0819      0.3099      0.0442
        39         0.4536      0.0057      0.0006      0.2058      0.0294
        40        -0.0011      0.0881     -0.2362      0.0636      0.0091
        41        -0.0053     -0.0002      0.0007      0.0000      0.0000
        42        -0.0001     -0.0875     -0.0808      0.0142      0.0021
        43        -0.0001     -0.2135      0.1273      0.0618      0.0090
        44         0.1373      0.0003      0.0001      0.0188      0.0028
        45        -0.4226      0.0005      0.0000      0.1786      0.0262
        46         0.0000     -0.2951      0.1697      0.1159      0.0171
        47         0.0001     -0.2629      0.1144      0.0822      0.0122
        48         0.0171     -0.0003      0.0001      0.0003      0.0000
        49         1.3758      0.0004      0.0002      1.8929      0.2826
        50        -0.0003      0.0455      0.3812      0.1474      0.0221
        51         0.2256     -0.0005      0.0000      0.0509      0.0076
        52        -0.0004     -0.2421     -0.2999      0.1485      0.0224
        53         0.2683     -0.0003     -0.0006      0.0720      0.0109
        54        -0.0022      0.0018      0.2657      0.0706      0.0108
        55        -0.2661      0.0000     -0.0020      0.0708      0.0108
        56         0.3573      0.0000      0.0003      0.1277      0.0196
        57        -0.1417      0.0000      0.0001      0.0201      0.0031
        58         0.2653     -0.0001      0.0001      0.0704      0.0109
        59        -0.1905     -0.0003      0.0003      0.0363      0.0056
        60        -0.0003     -0.0037     -0.1126      0.0127      0.0020
 Ground to excited state transition velocity dipole moments (Au):
       state          X           Y           Z        Dip. S.      Osc.
         1        -0.0036      0.0000      0.0000      0.0000      0.0001
         2        -0.1404      0.0000      0.0000      0.0197      0.1223
         3         0.0465      0.0000      0.0000      0.0022      0.0128
         4         0.0001     -0.0106     -0.0004      0.0001      0.0007
         5         0.0000     -0.0066     -0.0053      0.0001      0.0004
         6         0.1537      0.0000      0.0000      0.0236      0.1183
         7         0.0001      0.0186     -0.0015      0.0003      0.0017
         8         0.0001      0.0787      0.0226      0.0067      0.0331
         9        -0.0348      0.0001      0.0000      0.0012      0.0059
        10        -0.0125      0.0002      0.0000      0.0002      0.0008
        11         0.0000      0.0194     -0.0158      0.0006      0.0030
        12         0.0001     -0.2672     -0.1720      0.1009      0.4600
        13         0.0000     -0.0937     -0.0532      0.0116      0.0524
        14        -0.0001     -0.0490     -0.1137      0.0153      0.0664
        15        -0.0060      0.0000      0.0000      0.0000      0.0002
        16        -0.0867      0.0000      0.0001      0.0075      0.0320
        17         0.0000      0.0059     -0.0001      0.0000      0.0001
        18         0.0111      0.0000      0.0000      0.0001      0.0005
        19         0.0104      0.0001     -0.0001      0.0001      0.0004
        20         0.0000      0.1557     -0.1230      0.0394      0.1533
        21         0.0000     -0.0072      0.0591      0.0036      0.0137
        22         0.0091      0.0000      0.0000      0.0001      0.0003
        23         0.0000      0.0668     -0.0066      0.0045      0.0164
        24         0.0001     -0.3510      0.2766      0.1997      0.7051
        25        -0.2176     -0.0001      0.0001      0.0473      0.1659
        26        -0.0001      0.4081     -0.2591      0.2336      0.8119
        27         0.0000      0.1934     -0.1535      0.0610      0.2091
        28        -0.0005     -0.1310      0.0563      0.0203      0.0677
        29         0.0497     -0.0012      0.0005      0.0025      0.0082
        30        -0.0002      0.0085      0.0003      0.0001      0.0002
        31        -0.0044      0.0001     -0.0001      0.0000      0.0001
        32         0.0005      0.1074     -0.0584      0.0150      0.0485
        33        -0.0207      0.0024     -0.0013      0.0004      0.0014
        34         0.0000      0.0472      0.0345      0.0034      0.0109
        35         0.0073      0.0000      0.0001      0.0001      0.0002
        36         0.0001      0.0163     -0.0479      0.0026      0.0081
        37         0.0001     -0.0133     -0.0476      0.0024      0.0076
        38         0.0009     -0.1103     -0.0202      0.0126      0.0392
        39        -0.0977     -0.0011     -0.0002      0.0095      0.0297
        40         0.0002     -0.0165      0.0519      0.0030      0.0092
        41         0.0032      0.0000     -0.0001      0.0000      0.0000
        42         0.0000      0.0179      0.0175      0.0006      0.0019
        43         0.0000      0.0462     -0.0272      0.0029      0.0088
        44        -0.0300     -0.0001      0.0000      0.0009      0.0027
        45         0.0929     -0.0001      0.0000      0.0086      0.0261
        46         0.0000      0.0633     -0.0358      0.0053      0.0159
        47         0.0000      0.0570     -0.0277      0.0040      0.0120
        48        -0.0009      0.0001      0.0000      0.0000      0.0000
        49        -0.3096     -0.0001      0.0000      0.0959      0.2855
        50         0.0001     -0.0081     -0.0870      0.0076      0.0227
        51        -0.0535      0.0001      0.0000      0.0029      0.0085
        52         0.0001      0.0515      0.0725      0.0079      0.0233
        53        -0.0604      0.0001      0.0001      0.0036      0.0107
        54         0.0005     -0.0005     -0.0604      0.0037      0.0107
        55         0.0612      0.0000      0.0005      0.0037      0.0109
        56        -0.0843      0.0000     -0.0001      0.0071      0.0206
        57         0.0336      0.0000      0.0000      0.0011      0.0033
        58        -0.0583      0.0000      0.0000      0.0034      0.0098
        59         0.0430      0.0001     -0.0001      0.0018      0.0053
        60         0.0001      0.0003      0.0245      0.0006      0.0017
 Ground to excited state transition magnetic dipole moments (Au):
       state          X           Y           Z
         1         0.0130      0.0000      0.0000
         2         0.1783      0.0000      0.0001
         3        -0.0250      0.0002     -0.0001
         4         0.0000     -0.0924      0.0818
         5         0.0000     -0.0141     -0.0103
         6         0.0504     -0.0001      0.0005
         7         0.0000      0.1618     -0.2363
         8         0.0001      0.0769     -0.3454
         9        -0.0628      0.0000     -0.0007
        10         0.0151      0.0000     -0.0010
        11         0.0000     -0.2014     -0.1550
        12         0.0000      0.3394     -0.4407
        13         0.0000     -0.1793      0.0288
        14         0.0006      1.1103     -1.1505
        15        -0.0174     -0.0002      0.0001
        16         0.5869     -0.0011      0.0012
        17         0.0001      0.0036     -0.0606
        18         0.0334     -0.0001      0.0000
        19        -0.0118     -0.0006     -0.0007
        20         0.0002     -0.7071     -0.6692
        21         0.0000     -0.0910      0.1900
        22        -0.0089      0.0001      0.0000
        23         0.0000      0.5592      0.9294
        24        -0.0003      1.1819      1.6017
        25         0.0537      0.0003      0.0004
        26         0.0003     -1.5376     -2.0251
        27         0.0001      0.1330      0.2586
        28         0.0008      0.2542      0.1938
        29        -0.0757      0.0020      0.0015
        30         0.0004     -0.1455     -0.1040
        31         0.0359     -0.0004     -0.0004
        32         0.0005     -0.5149     -0.7182
        33        -0.0216     -0.0114     -0.0157
        34        -0.0001     -0.1050     -0.1716
        35        -0.0718     -0.0003      0.0001
        36        -0.0003      0.2296      0.1101
        37        -0.0001     -0.5823     -0.7229
        38        -0.0020      0.4696     -0.1972
        39         0.2001      0.0030     -0.0014
        40        -0.0001     -0.3395      0.4924
        41         0.0853      0.0016     -0.0010
        42         0.0000     -0.3163     -0.0237
        43         0.0000      0.0545     -0.0864
        44        -0.1360      0.0001     -0.0002
        45        -0.1129     -0.0001     -0.0001
        46        -0.0001     -0.1460      0.0852
        47         0.0000     -0.0085     -0.0619
        48        -0.0281     -0.0001     -0.0002
        49         0.0630      0.0002     -0.0003
        50         0.0000      0.1201     -0.2225
        51        -0.0321     -0.0002      0.0002
        52         0.0002     -0.6549      0.4341
        53        -0.0139     -0.0007      0.0008
        54        -0.0015      0.4140     -0.2894
        55        -0.1939     -0.0032      0.0023
        56         0.1535      0.0007     -0.0003
        57        -0.0118      0.0000     -0.0001
        58         0.0146     -0.0001     -0.0002
        59        -0.0209     -0.0002     -0.0006
        60         0.0000     -0.0219      0.1850
 Ground to excited state transition velocity quadrupole moments (Au):
       state          XX          YY          ZZ          XY          XZ          YZ
         1         0.0072     -0.0025      0.0017      0.0000      0.0000     -0.0148
         2         0.3297     -0.0883     -0.0288      0.0001      0.0001     -0.3309
         3        -0.0990      0.0151      0.0128      0.0000     -0.0001      0.0909
         4        -0.0002      0.0000      0.0000     -0.0469     -0.0146      0.0002
         5         0.0000      0.0000      0.0000     -0.0448     -0.0208      0.0000
         6        -0.9857      0.1440      0.0841     -0.0002     -0.0001      0.0919
         7        -0.0005      0.0001      0.0000      0.0947      0.0540      0.0000
         8        -0.0005      0.0001      0.0000      0.3128      0.2077      0.0000
         9         0.3003      0.0024     -0.0166      0.0004      0.0003      0.0650
        10        -0.2191     -0.0109      0.0349      0.0007      0.0005     -0.0198
        11         0.0002      0.0000      0.0000     -0.0339      0.0441      0.0000
        12         0.0008     -0.0004     -0.0001     -1.4257     -0.7457     -0.0001
        13         0.0003     -0.0002      0.0000     -0.6245     -0.2649     -0.0001
        14        -0.0009      0.0002      0.0004     -0.0633     -0.1855      0.0003
        15         0.0087     -0.0141     -0.0170      0.0001      0.0001     -0.0267
        16        -0.6804      0.0706      0.3270     -0.0002      0.0001      0.2527
        17        -0.0002      0.0001      0.0001      0.0664      0.0158      0.0002
        18         0.0375      0.1073      0.0551     -0.0001     -0.0001      0.1634
        19         0.0317      0.0307      0.0079     -0.0008      0.0004      0.0431
        20         0.0001     -0.0003      0.0001     -0.7343      0.4668     -0.0001
        21         0.0000      0.0000      0.0000      0.3394     -0.0265     -0.0001
        22         0.0403      0.0236      0.0074      0.0000     -0.0001      0.0484
        23         0.0001     -0.0001     -0.0001     -0.5326      0.5435     -0.0001
        24        -0.0002      0.0006     -0.0001      1.4914     -0.9839      0.0002
        25        -0.4332     -0.7065     -0.2878      0.0012     -0.0001     -1.1425
        26         0.0000     -0.0004      0.0002     -1.1863      1.0569     -0.0001
        27         0.0003     -0.0004      0.0000     -1.4104      0.9157      0.0000
        28        -0.0014     -0.0010      0.0002      0.2031     -0.3822     -0.0013
        29         0.1290      0.1033     -0.0174      0.0017     -0.0037      0.1227
        30        -0.0006     -0.0003      0.0002     -0.0517     -0.0032     -0.0002
        31        -0.0420      0.0138      0.0180     -0.0002      0.0003      0.0966
        32         0.0016      0.0014      0.0006     -0.1368      0.2357      0.0013
        33        -0.0663     -0.0671     -0.0295     -0.0029      0.0054     -0.0556
        34        -0.0001      0.0002      0.0000      0.5192      0.0324      0.0000
        35         0.0085      0.0265     -0.0271      0.0002     -0.0001     -0.0200
        36         0.0007      0.0000     -0.0003     -0.3610      0.1259      0.0000
        37         0.0007     -0.0001     -0.0002     -0.1838     -0.1702      0.0002
        38         0.0053     -0.0001     -0.0024     -0.1261     -0.2584     -0.0004
        39        -0.5514      0.0136      0.2393     -0.0029     -0.0025      0.0206
        40         0.0013     -0.0004     -0.0004     -0.3907      0.0538      0.0004
        41        -0.0390     -0.0446      0.0353      0.0011     -0.0001      0.1908
        42         0.0000      0.0000      0.0000      0.1129     -0.0229      0.0001
        43        -0.0002      0.0001      0.0001     -0.1190      0.1708      0.0001
        44         0.4032     -0.1908     -0.1924      0.0001     -0.0002     -0.4604
        45         0.2706      0.0398     -0.1493     -0.0003     -0.0004      0.1293
        46         0.0006     -0.0002     -0.0002     -0.2789      0.2207     -0.0004
        47         0.0004      0.0000     -0.0001     -0.0610      0.1361     -0.0002
        48        -0.1073     -0.0388     -0.0526     -0.0001      0.0003     -0.0408
        49         1.0494     -0.2479     -0.0807     -0.0002      0.0000     -0.4695
        50        -0.0001      0.0000      0.0000     -0.4696      0.0273      0.0000
        51         0.6257     -0.0264     -0.0397      0.0000      0.0003      0.0283
        52        -0.0013      0.0000      0.0002     -0.1107      0.1433     -0.0001
        53         1.1148     -0.0655     -0.1193      0.0002      0.0001      0.2290
        54         0.0030      0.0000     -0.0017      0.0373     -0.0173     -0.0011
        55         0.5725     -0.0175     -0.2394     -0.0002      0.0001     -0.0987
        56         0.2078      0.0549      0.1925      0.0000      0.0000      0.2887
        57        -0.0724     -0.0704     -0.1077      0.0000      0.0000     -0.1017
        58         0.4338     -0.1018     -0.1127     -0.0001      0.0000     -0.1688
        59         0.1470      0.0166     -0.0279     -0.0003      0.0002      0.0279
        60        -0.0003      0.0002      0.0000      0.0862      0.0268      0.0000
 <0|del|b> * <b|rxdel|0> + <0|del|b> * <b|delr+rdel|0>
 Rotatory Strengths (R) in cgs (10**-40 erg-esu-cm/Gauss)
       state          XX          YY          ZZ    R(velocity)    E-M Angle
         1         0.0000      0.0365     -0.5596     -0.1744       90.00
         2         0.0000     70.4802   -235.2383    -54.9194       90.00
         3         0.0000      9.5977    -16.8844     -2.4289       90.00
         4         2.5053     -0.1622      3.5048      1.9493       43.73
         5         0.7169     -0.5279      0.6586      0.2826       90.00
         6         0.0000     58.0487    -16.9312     13.7058       90.00
         7         5.8563      1.3045     10.6104      5.9237       51.02
         8       -28.8740    -38.9311     58.6023     -3.0676       93.48
         9        -0.0001     -0.1988     11.4739      3.7583       90.00
        10        -0.0003      0.1506     -1.1176     -0.3224       90.00
        11        -4.5045      4.8158     -7.6950     -2.4612      103.32
        12        75.0472   -409.3706    262.3870    -23.9788       94.83
        13        56.6463    -83.1440     99.4870     24.3298       38.74
        14       171.0533    283.8794   -104.1030    116.9433       67.30
        15         0.0000      0.6084     -0.1286      0.1600       90.00
        16         0.0002   -164.4261    -65.4505    -76.6255      179.78
        17        -0.1554      0.0380      0.2457      0.0428       90.00
        18         0.0000      4.6384     -3.0646      0.5246       90.00
        19         0.0002      0.6812     -1.1972     -0.1719       90.00
        20       -20.7940    -16.5638    -77.2307    -38.1962       98.26
        21        64.9157    -18.0487      1.7358     16.2009       18.61
        22         0.0000      0.7180     -1.0424     -0.1081       90.00
        23        -3.0513    -18.7122    142.4835     40.2400       64.62
        24       178.4070     57.0981   -130.1304     35.1249       88.19
        25         0.0003    440.3987   -483.8467    -14.4826      179.43
        26      -417.9190    400.4880   -361.5485   -126.3265       94.80
        27        46.2419   -465.9469    368.8817    -16.9411      101.22
        28      -107.7966     -0.9277     29.6234    -26.3670      119.42
        29        -0.0094      4.1158    -17.3891     -4.4276      178.20
        30        -2.2075     -0.0298     -2.2145     -1.4839      146.62
        31        -0.0001     -1.0188      0.4668     -0.1840       90.00
        32       -52.7455     58.3811    -51.5532    -15.3059       97.10
        33        -0.0285      2.7714     -1.2323      0.5035       43.45
        34         9.3379    -40.4028     -5.8057    -12.2902      157.62
        35         0.0001     -1.1248     -0.6337     -0.5862       90.00
        36        22.9699    -37.8073      9.6969     -1.7135       96.84
        37        80.6826     42.5645     16.6157     46.6209       23.23
        38      -121.9409      2.3644    -38.4958    -52.6908      146.86
        39        -0.0092    -35.6017    -28.9695    -21.5268      179.47
        40        19.2965     75.2123      7.7298     34.0795       16.97
        41         0.0001      1.4453     -0.5517      0.2979       90.00
        42        -6.0058     -3.8951     -9.8844     -6.5951      139.91
        43         0.3349     -1.4365     16.8448      5.2477       27.28
        44         0.0000     28.8866    -15.7166      4.3900       90.00
        45         0.0000      2.4530    -36.1013    -11.2161       90.00
        46       -26.0225    -20.8260      7.5568    -13.0972      179.22
        47        -7.6829      0.0397     11.5635      1.3067       71.85
        48         0.0000      0.0981     -0.0180      0.0267       90.00
        49         0.0000    198.8061   -260.3817    -20.5252       90.00
        50        93.6351    -33.8573     -1.8795     19.2994       33.68
        51        -0.0001      0.3174      5.0699      1.7957       90.00
        52       -27.6272     61.6906    -41.1836     -2.3734       91.87
        53         0.0001    -20.2484     22.8671      0.8729       90.00
        54        23.2437     30.5422     -0.3011     17.8283       55.51
        55         0.0014    -27.6676     -9.0104    -12.2255      178.57
        56         0.0000    -57.4028     17.5429    -13.2866       90.00
        57         0.0000     -5.8568      4.6357     -0.4070       90.00
        58         0.0000     13.7366    -16.3456     -0.8697       90.00
        59         0.0000      0.4587     -3.1986     -0.9133       90.00
        60        10.0716      3.6764      0.0023      4.5835        7.48
 1/2[<0|r|b>*<b|rxdel|0> + (<0|rxdel|b>*<b|r|0>)*]
 Rotatory Strengths (R) in cgs (10**-40 erg-esu-cm/Gauss)
       state          XX          YY          ZZ     R(length)
         1        -0.4758      0.0000      0.0000     -0.1586
         2      -158.0204      0.0000      0.0000    -52.6735
         3        -7.0441      0.0000      0.0000     -2.3480
         4         0.0000      4.4160      0.0567      1.4909
         5         0.0000      0.4999      0.3495      0.2831
         6        38.2972      0.0000      0.0000     12.7657
         7         0.0000     15.2297     -3.1601      4.0232
         8         0.0000     31.2172    -44.4794     -4.4207
         9         9.4418      0.0000     -0.0001      3.1472
        10        -0.8110      0.0000     -0.0002     -0.2704
        11         0.0000    -21.0913     11.5898     -3.1672
        12         0.0000   -443.8356    367.0176    -25.6060
        13         0.0000     78.7386     -8.1524     23.5287
        14        -0.0003   -248.4629    574.5112    108.6827
        15         0.4830      0.0000      0.0000      0.1610
        16      -224.4212     -0.0001      0.0006    -74.8069
        17         0.0000      0.1047     -0.1614     -0.0189
        18         1.7669      0.0000      0.0000      0.5890
        19        -0.5293     -0.0003      0.0004     -0.1764
        20         0.0000   -471.5470    338.1040    -44.4810
        21         0.0000      1.6264     49.2240     16.9501
        22        -0.3217      0.0000      0.0000     -0.1072
        23         0.0000    150.1507    -20.0282     43.3741
        24        -0.0001  -1569.6185   1662.3632     30.9149
        25       -44.3161     -0.0001      0.0002    -14.7720
        26        -0.0001  -2370.8835   1991.5603   -126.4411
        27         0.0000     96.0927   -150.8990    -18.2688
        28        -0.0014   -122.1742     42.8305    -26.4484
        29       -13.3298     -0.0091      0.0033     -4.4452
        30        -0.0002     -4.5606     -0.6077     -1.7228
        31        -0.4814     -0.0001      0.0001     -0.1605
        32         0.0007   -194.9029    147.9883    -15.6379
        33         1.4627     -0.0964      0.0705      0.4790
        34         0.0000    -16.6318    -22.5260    -13.0526
        35        -2.3732      0.0000      0.0000     -0.7911
        36        -0.0001     14.6562    -18.5973     -1.3137
        37         0.0000     23.2498    113.8352     45.6950
        38        -0.0063   -182.8529     11.4134    -57.1486
        39       -64.1926     -0.0121      0.0006    -21.4014
        40        -0.0001     21.1646     82.2463     34.4703
        41         0.3211      0.0003      0.0005      0.1073
        42         0.0000    -19.5768     -1.3522     -6.9763
        43         0.0000      8.2312      7.7738      5.3350
        44        13.1989      0.0000      0.0000      4.3996
        45       -33.7331      0.0001      0.0000    -11.2443
        46         0.0000    -30.4629    -10.2176    -13.5602
        47         0.0000     -1.5761      5.0049      1.1429
        48         0.3401      0.0000      0.0000      0.1134
        49       -61.2586      0.0000      0.0000    -20.4195
        50         0.0000     -3.8661     59.9779     18.7039
        51         5.1142     -0.0001      0.0000      1.7047
        52         0.0001   -112.1355     92.0598     -6.6919
        53         2.6389     -0.0002      0.0003      0.8797
        54        -0.0023     -0.5149     54.3795     17.9541
        55       -36.4999     -0.0001      0.0032    -12.1656
        56       -38.7946      0.0000      0.0001    -12.9315
        57        -1.1859      0.0000      0.0000     -0.3953
        58        -2.7475      0.0000      0.0000     -0.9158
        59        -2.8160      0.0000      0.0001     -0.9386
        60         0.0000     -0.0572     14.7295      4.8908
  1/2[<0|del|b>*<b|r|0> + (<0|r|b>*<b|del|0>)*] (Au)
       state          X           Y           Z        Dip. S.   Osc.(frdel)
         1        -0.0002      0.0000      0.0000      0.0002      0.0001
         2        -0.1759      0.0000      0.0000      0.1759      0.1173
         3        -0.0185      0.0000      0.0000      0.0185      0.0123
         4         0.0000     -0.0007      0.0000      0.0007      0.0005
         5         0.0000     -0.0003     -0.0003      0.0006      0.0004
         6        -0.1653      0.0000      0.0000      0.1653      0.1102
         7         0.0000     -0.0025      0.0000      0.0025      0.0016
         8         0.0000     -0.0452     -0.0041      0.0493      0.0329
         9        -0.0074      0.0000      0.0000      0.0074      0.0049
        10        -0.0009      0.0000      0.0000      0.0009      0.0006
[...]
     1  C    0.000000   0.000004   0.000000   0.000000   0.000000   0.000000
     2  C    0.000000  -0.000031   0.000000  -0.000001   0.000000   0.000001
     3  H    0.000000   0.000000   0.000000   0.000000   0.000000   0.000000
     4  H    0.000000   0.000000   0.000000   0.000000   0.000000   0.000000
     5  C    0.000002   0.000004   0.000000   0.000001   0.000000   0.000000
     6  C    0.000006  -0.000006   0.000000   0.000000   0.000001   0.000003
     7  C   -0.000011   0.000000   0.000000   0.000000   0.000001   0.000000
     8  C   -0.000019  -0.000001   0.000000  -0.000017   0.000000   0.000006
     9  C    0.000039  -0.000031   0.000002  -0.000008   0.000000   0.000000
    10  C    0.000079   0.000013   0.000000   0.000003  -0.000025  -0.000086
    11  C   -0.000006   0.000000   0.000000   0.000000   0.000001   0.000000
    12  H    0.000000   0.000000   0.000000   0.000000   0.000000   0.000000
    13  C    0.000045  -0.000043  -0.000005  -0.000112   0.000011  -0.000003
    14  C   -0.000032   0.000019  -0.000045  -0.000010   0.000054   0.000000
    15  C    0.000474   0.000266   0.000003  -0.000030  -0.000085  -0.000111
    16  C   -0.000001   0.000008   0.000004   0.000000  -0.000031  -0.000006
    17  C    0.000340  -0.017891  -0.000033  -0.000251   0.000490   0.000498
    18  H   -0.000017   0.000000   0.000000   0.000000  -0.000001   0.000000
    19  C    0.000233   0.000006   0.000551   0.000002   0.000277   0.000000
    20  C   -0.001905   0.000466   0.000047   0.000279  -0.001405   0.000001
    21  C    0.000107   0.000000   0.000483   0.000000  -0.000999   0.000000
    22  H    0.000000  -0.000130   0.000000   0.000001   0.000000   0.000421
    23  C    0.000105   0.007433   0.000000   0.001045   0.000002   0.002351
    24  C   -0.000004   0.001138   0.000000  -0.000107   0.000000   0.000282
    25  C   -0.020109  -0.000145   0.000865  -0.000035  -0.000459   0.000000
    26  C   -0.000145   0.172164   0.000000   0.000693  -0.000020   0.000974
    27  C    0.000865   0.000000  -0.018125   0.000001  -0.000900   0.000000
    28  H   -0.000035   0.000693   0.000001  -0.008939  -0.000006   0.000016
    29  C   -0.000459  -0.000020  -0.000900  -0.000006   0.023096   0.000000
    30  C    0.000000   0.000974   0.000000   0.000016   0.000000  -0.091911
    31  H    0.000000  -0.000024   0.000000   0.000000   0.000000  -0.000426
    32  C    0.000003  -0.000432   0.000000   0.000802   0.000000   0.000702
    33  C    0.000000  -0.008800   0.000000  -0.000075   0.000000   0.000483
    34  H    0.000000  -0.000130   0.000000   0.000054   0.000000   0.000022
    35  H    0.000000  -0.000078   0.000000   0.000004   0.000000   0.000331
    36  H    0.000001   0.000132   0.000000   0.000002  -0.000001  -0.000023
    37  H    0.000000  -0.000003   0.000000   0.000000   0.000000   0.000000
    38  H    0.000001   0.000152   0.000000  -0.000010   0.000000  -0.000070
    39  H    0.000000   0.000000   0.000000   0.000000   0.000000   0.000000
    40  H    0.000000   0.000000   0.000000   0.000000   0.000000   0.000000
    41  H    0.000002   0.000000  -0.000005   0.000000   0.000000   0.000000
    42  H    0.001051   0.000107   0.000016   0.000013  -0.000945   0.000002
    43  H   -0.000290  -0.000001   0.000008   0.000000   0.000469   0.000000
    44  H    0.000005   0.000000   0.000013   0.000000   0.000012   0.000000
    45  H   -0.000005   0.000000  -0.000125   0.000000  -0.000048   0.000000
    46  C    0.002444   0.000655   0.000004   0.000363  -0.000205   0.000014
              31         32         33         34         35         36
     1  C    0.000000   0.000000   0.000000   0.000000   0.000000   0.000000
     2  C    0.000000   0.000001   0.000001   0.000000   0.000000   0.000000
     3  H    0.000000   0.000000   0.000000   0.000000   0.000000   0.000104
     4  H    0.000000   0.000000   0.000000   0.000000   0.000000   0.000005
     5  C    0.000000   0.000000   0.000000   0.000000   0.000000   0.000000
     6  C    0.000000   0.000000   0.000000   0.000000   0.000000   0.000422
     7  C    0.000000   0.000000   0.000000   0.000000   0.000000  -0.000087
     8  C    0.000000  -0.000006  -0.000011   0.000000   0.000000   0.000000
     9  C    0.000000   0.000000   0.000000   0.000000   0.000000   0.000000
    10  C    0.000012   0.000003   0.000012   0.000000   0.000000   0.000626
    11  C    0.000000   0.000000   0.000000   0.000000   0.000000   0.000020
    12  H    0.000000   0.000000   0.000000   0.000000   0.000000  -0.000001
    13  C    0.000000   0.000010  -0.000003   0.000000   0.000000  -0.000001
    14  C    0.000000   0.000000   0.000000   0.000000   0.000000   0.000000
    15  C   -0.000001   0.000000  -0.000004   0.000001   0.000000   0.001844
    16  C    0.000000   0.000000   0.000000   0.000000   0.000000  -0.000130
    17  C   -0.000031   0.000119   0.000386  -0.000018   0.000001  -0.001277
    18  H    0.000000   0.000000   0.000000   0.000000   0.000000   0.000001
    19  C    0.000000   0.000000   0.000000   0.000000   0.000000   0.000000
    20  C    0.000000  -0.000030  -0.000001   0.000002   0.000000   0.000009
    21  C    0.000000   0.000000   0.000000   0.000000   0.000000   0.000000
    22  H    0.000104   0.000020  -0.000087  -0.000001   0.000005   0.000049
    23  C   -0.000008   0.001923  -0.000571   0.000008   0.000002   0.000141
    24  C   -0.000035   0.000992  -0.008714  -0.000047  -0.000061   0.000438
    25  C    0.000000   0.000003   0.000000   0.000000   0.000000   0.000001
    26  C   -0.000024  -0.000432  -0.008800  -0.000130  -0.000078   0.000132
    27  C    0.000000   0.000000   0.000000   0.000000   0.000000   0.000000
    28  H    0.000000   0.000802  -0.000075   0.000054   0.000004   0.000002
    29  C    0.000000   0.000000   0.000000   0.000000   0.000000  -0.000001
    30  C   -0.000426   0.000702   0.000483   0.000022   0.000331  -0.000023
    31  H    0.004260   0.000008  -0.000465  -0.000004   0.000076  -0.000005
    32  C    0.000008  -0.091185   0.001255  -0.000315   0.000325  -0.000002
    33  C   -0.000465   0.001255   0.176578  -0.000407   0.001341  -0.000020
    34  H   -0.000004  -0.000315  -0.000407   0.004135   0.000061   0.000000
    35  H    0.000076   0.000325   0.001341   0.000061  -0.008807   0.000000
    36  H   -0.000005  -0.000002  -0.000020   0.000000   0.000000  -0.009047
    37  H    0.000000   0.000000   0.000000   0.000000   0.000000   0.000000
    38  H    0.000000   0.000045  -0.000020  -0.000001   0.000000  -0.000001
    39  H    0.000000   0.000000   0.000000   0.000000   0.000000   0.000000
    40  H    0.000000   0.000000   0.000000   0.000000   0.000000   0.000000
    41  H    0.000000   0.000000   0.000000   0.000000   0.000000   0.000000
    42  H    0.000000  -0.000003  -0.000001   0.000000   0.000000   0.000042
    43  H    0.000000   0.000000   0.000000   0.000000   0.000000   0.000000
    44  H    0.000000   0.000000   0.000000   0.000000   0.000000   0.000000
    45  H    0.000000   0.000000   0.000000   0.000000   0.000000   0.000000
    46  C    0.000000  -0.000093   0.000002  -0.000001   0.000000  -0.000028
              37         38         39         40         41         42
     1  C    0.000008   0.000016   0.000013  -0.000125  -0.000005   0.000000
     2  C    0.000469  -0.000943   0.000012  -0.000048   0.000000   0.000000
     3  H    0.000000   0.000000   0.000000   0.000000   0.000000   0.000000
     4  H    0.000000   0.000000   0.000000   0.000000   0.000000   0.000000
     5  C   -0.000003   0.000017  -0.000069  -0.000011  -0.000022   0.000000
     6  C    0.000000   0.000002   0.000000   0.000000   0.000000  -0.000070
     7  C    0.000000  -0.000001   0.000000   0.000000   0.000000  -0.000020
     8  C   -0.000290   0.001050   0.000005  -0.000005   0.000002   0.000001
     9  C    0.000006  -0.000060   0.000179   0.000004   0.000049   0.000002
    10  C    0.000000   0.000013   0.000000   0.000000   0.000000   0.000328
    11  C    0.000000  -0.000003   0.000000   0.000000   0.000000   0.000045
    12  H    0.000000   0.000000   0.000000   0.000000   0.000000  -0.000001
    13  C   -0.000035   0.001551   0.000015   0.000003  -0.000018  -0.000069
    14  C    0.000000  -0.000005   0.000019  -0.000001   0.000699  -0.000005
    15  C    0.000000  -0.000200   0.000000   0.000000   0.000000  -0.000044
    16  C   -0.000001   0.000107   0.000000   0.000000   0.000000   0.000152
    17  C    0.000021  -0.003912   0.000001   0.000000   0.000001  -0.003915
    18  H    0.000000   0.000013   0.000000   0.000000   0.000000  -0.000010
    19  C    0.000000   0.000002  -0.000005   0.000000   0.000049  -0.000060
    20  C    0.000000  -0.000069   0.000002   0.000000  -0.000018   0.001552
    21  C    0.000000   0.000000   0.000001   0.000000  -0.000022   0.000017
    22  H    0.000000   0.000042   0.000000   0.000000   0.000000  -0.000001
    23  C   -0.000002  -0.000044   0.000000   0.000000   0.000000  -0.000200
    24  C   -0.000002   0.000328   0.000000   0.000000   0.000000   0.000013
    25  C    0.000000   0.000001   0.000000   0.000000   0.000002   0.001051
    26  C   -0.000003   0.000152   0.000000   0.000000   0.000000   0.000107
    27  C    0.000000   0.000000   0.000000   0.000000  -0.000005   0.000016
    28  H    0.000000  -0.000010   0.000000   0.000000   0.000000   0.000013
    29  C    0.000000   0.000000   0.000000   0.000000   0.000000  -0.000945
    30  C    0.000000  -0.000070   0.000000   0.000000   0.000000   0.000002
    31  H    0.000000   0.000000   0.000000   0.000000   0.000000   0.000000
    32  C    0.000000   0.000045   0.000000   0.000000   0.000000  -0.000003
    33  C    0.000000  -0.000020   0.000000   0.000000   0.000000  -0.000001
    34  H    0.000000  -0.000001   0.000000   0.000000   0.000000   0.000000
    35  H    0.000000   0.000000   0.000000   0.000000   0.000000   0.000000
    36  H    0.000000  -0.000001   0.000000   0.000000   0.000000   0.000042
    37  H   -0.000943  -0.000005   0.000002   0.000007   0.000000   0.000000
    38  H   -0.000005   0.000364  -0.000001  -0.000001   0.000000  -0.000001
    39  H    0.000002  -0.000001  -0.000768   0.000007  -0.000009   0.000000
    40  H    0.000007  -0.000001   0.000007   0.000864   0.000000   0.000000
    41  H    0.000000   0.000000  -0.000009   0.000000  -0.002838   0.000000
    42  H    0.000000  -0.000001   0.000000   0.000000   0.000000   0.000366
    43  H    0.000000   0.000000   0.000000   0.000000   0.000000  -0.000005
    44  H    0.000000   0.000000  -0.000001   0.000000  -0.000009  -0.000001
    45  H    0.000000   0.000000   0.000000   0.000000   0.000000  -0.000001
    46  C    0.000004   0.000021   0.000003   0.000000   0.000002   0.000021
              43         44         45         46
     1  C    0.000000   0.000000   0.000000   0.000004
     2  C    0.000000   0.000000   0.000000  -0.000205
     3  H    0.000000   0.000000   0.000000   0.000000
     4  H    0.000000   0.000000   0.000000   0.000000
     5  C    0.000000   0.000001   0.000000  -0.000129
     6  C    0.000000   0.000000   0.000000   0.000014
     7  C    0.000000   0.000000   0.000000   0.000002
     8  C    0.000000   0.000000   0.000000   0.002443
     9  C    0.000000  -0.000005   0.000000   0.000835
    10  C   -0.000002   0.000000   0.000000  -0.000307
    11  C    0.000000   0.000000   0.000000  -0.000093
    12  H    0.000000   0.000000   0.000000  -0.000001
    13  C    0.000000   0.000002   0.000000   0.009726
    14  C    0.000000   0.000019  -0.000001   0.000293
    15  C   -0.000002   0.000000   0.000000   0.004677
    16  C   -0.000003   0.000000   0.000000   0.000655
    17  C    0.000021   0.000001   0.000000  -0.005984
    18  H    0.000000   0.000000   0.000000   0.000363
    19  C    0.000006   0.000179   0.000004   0.000836
    20  C   -0.000035   0.000015   0.000003   0.009723
    21  C   -0.000003  -0.000069  -0.000011  -0.000129
    22  H    0.000000   0.000000   0.000000  -0.000028
    23  C    0.000000   0.000000   0.000000   0.004682
    24  C    0.000000   0.000000   0.000000  -0.000308
    25  C   -0.000290   0.000005  -0.000005   0.002444
    26  C   -0.000001   0.000000   0.000000   0.000655
    27  C    0.000008   0.000013  -0.000125   0.000004
    28  H    0.000000   0.000000   0.000000   0.000363
    29  C    0.000469   0.000012  -0.000048  -0.000205
    30  C    0.000000   0.000000   0.000000   0.000014
    31  H    0.000000   0.000000   0.000000   0.000000
    32  C    0.000000   0.000000   0.000000  -0.000093
    33  C    0.000000   0.000000   0.000000   0.000002
    34  H    0.000000   0.000000   0.000000  -0.000001
    35  H    0.000000   0.000000   0.000000   0.000000
    36  H    0.000000   0.000000   0.000000  -0.000028
    37  H    0.000000   0.000000   0.000000   0.000004
    38  H    0.000000   0.000000   0.000000   0.000021
    39  H    0.000000  -0.000001   0.000000   0.000003
    40  H    0.000000   0.000000   0.000000   0.000000
    41  H    0.000000  -0.000009   0.000000   0.000002
    42  H   -0.000005  -0.000001  -0.000001   0.000021
    43  H   -0.000942   0.000002   0.000007   0.000004
    44  H    0.000002  -0.000768   0.000007   0.000003
    45  H    0.000007   0.000007   0.000864   0.000000
    46  C    0.000004   0.000003   0.000000  -0.121411
 Mulliken charges and spin densities:
               1          2
     1  C   -0.003452  -0.017241
     2  C    0.004106   0.019289
     3  H    0.022032   0.003464
     4  H    0.020781  -0.006806
     5  C   -0.000551   0.018248
     6  C   -0.001888  -0.086588
     7  C   -0.016145   0.161005
     8  C   -0.020488  -0.017233
     9  C   -0.006372  -0.021918
    10  C   -0.036466   0.155861
    11  C    0.000039  -0.085916
    12  H    0.021057   0.003362
    13  C    0.015936   0.048321
    14  C   -0.029890   0.053656
    15  C    0.001767  -0.152946
    16  C   -0.019399   0.156572
    17  C   -0.061047   0.715623
    18  H    0.005282  -0.006327
    19  C   -0.006379  -0.021920
    20  C    0.015932   0.048330
    21  C   -0.000546   0.018246
    22  H    0.011972  -0.006786
    23  C    0.001733  -0.152881
    24  C   -0.036448   0.155750
    25  C   -0.020481  -0.017234
    26  C   -0.019392   0.156470
    27  C   -0.003452  -0.017241
    28  H    0.005274  -0.006323
    29  C    0.004103   0.019285
    30  C   -0.001894  -0.086528
    31  H    0.022033   0.003462
    32  C    0.000034  -0.085856
    33  C   -0.016141   0.160880
    34  H    0.021057   0.003360
    35  H    0.020782  -0.006801
    36  H    0.011968  -0.006790
    37  H    0.018928  -0.000767
    38  H    0.001196  -0.001623
    39  H    0.007519  -0.000593
    40  H    0.021436   0.000695
    41  H   -0.004773  -0.002141
    42  H    0.001204  -0.001622
    43  H    0.018928  -0.000767
    44  H    0.007519  -0.000593
    45  H    0.021436   0.000695
    46  C    0.001150  -0.091132
 Sum of Mulliken charges =   0.00000   1.00000
 Mulliken charges and spin densities with hydrogens summed into heavy atoms:
               1          2
     1  C    0.017985  -0.016547
     2  C    0.023033   0.018522
     5  C    0.006968   0.017655
     6  C    0.020143  -0.083124
     7  C    0.004636   0.154199
     8  C   -0.019292  -0.018855
     9  C   -0.006372  -0.021918
    10  C   -0.024499   0.149071
    11  C    0.021096  -0.082554
    13  C    0.015936   0.048321
    14  C   -0.034664   0.051515
    15  C    0.001767  -0.152946
    16  C   -0.014117   0.150245
    17  C   -0.061047   0.715623
    19  C   -0.006379  -0.021920
    20  C    0.015932   0.048330
    21  C    0.006973   0.017653
    23  C    0.001733  -0.152881
    24  C   -0.024476   0.148964
    25  C   -0.019277  -0.018856
    26  C   -0.014118   0.150147
    27  C    0.017985  -0.016547
    29  C    0.023031   0.018518
    30  C    0.020140  -0.083066
    32  C    0.021091  -0.082496
    33  C    0.004641   0.154079
    46  C    0.001150  -0.091132
 Electronic spatial extent (au):  <R**2>=           8610.1806
 Charge=              0.0000 electrons
 Dipole moment (field-independent basis, Debye):
    X=             -0.0455    Y=              0.0003    Z=              0.0001  Tot=              0.0455
 Quadrupole moment (field-independent basis, Debye-Ang):
   XX=           -133.3739   YY=           -142.6867   ZZ=           -150.1973
   XY=              0.0012   XZ=             -0.0016   YZ=             -2.0347
 Traceless Quadrupole moment (field-independent basis, Debye-Ang):
   XX=              8.7121   YY=             -0.6008   ZZ=             -8.1113
   XY=              0.0012   XZ=             -0.0016   YZ=             -2.0347
 Octapole moment (field-independent basis, Debye-Ang**2):
  XXX=            -21.7593  YYY=              0.0115  ZZZ=              0.0066  XYY=             16.9274
  XXY=             -0.0039  XXZ=             -0.0088  XZZ=             -3.8141  YZZ=              0.0044
  YYZ=              0.0069  XYZ=             34.8870
 Hexadecapole moment (field-independent basis, Debye-Ang**3):
 XXXX=          -4722.3837 YYYY=          -4240.2308 ZZZZ=          -2335.9550 XXXY=             -0.0525
 XXXZ=             -0.0175 YYYX=              0.0745 YYYZ=            -23.2276 ZZZX=             -0.0166
 ZZZY=             25.9611 XXYY=          -1404.9777 XXZZ=          -1284.7796 YYZZ=           -883.8839
 XXYZ=            -36.9378 YYXZ=             -0.0157 ZZXY=             -0.0317
 N-N= 2.236514308567D+03 E-N=-6.884465353935D+03  KE= 1.032905545308D+03
 1|1|UNPC-CHSHR-P01|SP|UwB97XD TD-FC|CC-pVDZ|C27H19(2)|IBS|30-Apr-2024|
 0||# td=(nstates=60) uwb97xd/cc-pvdz scrf=(cpcm,solvent=n,n-dimethylfo
 rmamide) geom=connectivity guess=read||monomer-radical-neutral||0,2|C,
 0,-2.75491912,2.95046898,-2.15486597|C,0,-1.32776944,2.94098231,-2.184
 71865|H,0,4.48935174,-2.90778974,-0.65520035|H,0,3.35025233,-4.0429429
 6,-2.56152039|C,0,-3.42987973,2.00086118,-1.44354225|C,0,3.50149739,-2
 .57488749,-0.97939871|C,0,2.8615814,-3.21638658,-2.04282365|C,0,-0.621
 65487,1.99571507,-1.49571486|C,0,-2.72584018,0.98905256,-0.71076614|C,
 0,2.88248941,-1.52143938,-0.31631487|C,0,1.58515691,-2.79811072,-2.427
 57903|H,0,1.07446088,-3.2937696,-3.25545842|C,0,-1.2891155,0.98959761,
 -0.7197108|C,0,-3.41049869,-0.0003636,-0.00006646|C,0,1.5960135,-1.074
 22331,-0.69788459|C,0,0.95822098,-1.75052494,-1.76346162|C,0,0.9065925
 2,0.00003488,0.00000632|H,0,-0.03837794,-1.4325419,-2.07509349|C,0,-2.
 72567299,-0.98969132,0.71056822|C,0,-1.28893634,-0.99005666,0.71941538
 |C,0,-3.42951896,-2.0016052,1.44341349|H,0,3.38253862,1.05964312,-0.53
 481499|C,0,1.59551044,1.07458838,0.69809673|C,0,2.88171265,1.52249347,
 0.31646458|C,0,-0.62127908,-1.99608801,1.49538183|C,0,0.95743332,1.750
 45542,1.76373861|C,0,-2.75437707,-2.95112366,2.15466981|H,0,-0.0389983
 2,1.43197041,2.07538136|C,0,-1.32721126,-2.94144423,2.18442688|C,0,3.5
 0025794,2.57618543,0.97961385|H,0,4.48790763,2.90963662,0.6553625|C,0,
 1.58390546,2.79828069,2.42794655|C,0,2.8600784,3.21723993,2.04315457|H
 ,0,1.07301298,3.29358309,3.25591687|H,0,3.34834986,4.04399763,2.561910
 53|H,0,3.38318498,-1.05825647,0.53486205|H,0,-0.79852276,3.69595805,-2
 .76866962|H,0,0.4679285,1.99641882,-1.53477708|H,0,-4.52185092,1.99185
 758,-1.42185465|H,0,-3.30064755,3.71573209,-2.70937359|H,0,-4.50343147
 ,-0.00042977,-0.0000382|H,0,0.46830892,-1.99660839,1.53439472|H,0,-0.7
 9782724,-3.69635507,2.76833914|H,0,-4.52149376,-1.99271264,1.42184021|
 H,0,-3.29995295,-3.71644206,2.70924934|C,0,-0.58114269,-0.00016895,-0.
 0001252||Version=EM64W-G09RevD.01|State=2-A|HF=-1040.0336205|S2=0.7970
 78|S2-1=0.|S2A=0.752053|RMSD=4.851e-009|PG=C01 [X(C27H19)]||@


 IT IS A SIMPLE TASK TO MAKE THINGS COMPLEX,
 BUT A COMPLEX TASK TO MAKE THEM SIMPLE.
 Job cpu time:       0 days  2 hours 32 minutes 13.0 seconds.
 File lengths (MBytes):  RWF=   3880 Int=      0 D2E=      0 Chk=    675 Scr=      1
 Normal termination of Gaussian 09 at Tue Apr 30 18:58:43 2024.
