 Entering Link 1 = C:\G09W\l1.exe PID=      4376.
  
 Copyright (c) 1988,1990,1992,1993,1995,1998,2003,2009,2013,
            Gaussian, Inc.  All Rights Reserved.
  
 This is part of the Gaussian(R) 09 program.  It is based on
 the Gaussian(R) 03 system (copyright 2003, Gaussian, Inc.),
 the Gaussian(R) 98 system (copyright 1998, Gaussian, Inc.),
 the Gaussian(R) 94 system (copyright 1995, Gaussian, Inc.),
 the Gaussian 92(TM) system (copyright 1992, Gaussian, Inc.),
 the Gaussian 90(TM) system (copyright 1990, Gaussian, Inc.),
 the Gaussian 88(TM) system (copyright 1988, Gaussian, Inc.),
 the Gaussian 86(TM) system (copyright 1986, Carnegie Mellon
 University), and the Gaussian 82(TM) system (copyright 1983,
 Carnegie Mellon University). Gaussian is a federally registered
 trademark of Gaussian, Inc.
  
 This software contains proprietary and confidential information,
 including trade secrets, belonging to Gaussian, Inc.
  
 This software is provided under written license and may be
 used, copied, transmitted, or stored only in accord with that
 written license.
  
 The following legend is applicable only to US Government
 contracts under FAR:
  
                    RESTRICTED RIGHTS LEGEND
  
 Use, reproduction and disclosure by the US Government is
 subject to restrictions as set forth in subparagraphs (a)
 and (c) of the Commercial Computer Software - Restricted
 Rights clause in FAR 52.227-19.
  
 Gaussian, Inc.
 340 Quinnipiac St., Bldg. 40, Wallingford CT 06492
  
  
 ---------------------------------------------------------------
 Warning -- This program may not be used in any manner that
 competes with the business of Gaussian, Inc. or will provide
 assistance to any competitor of Gaussian, Inc.  The licensee
 of this program is prohibited from giving any competitor of
 Gaussian, Inc. access to this program.  By using this program,
 the user acknowledges that Gaussian, Inc. is engaged in the
 business of creating and licensing software in the field of
 computational chemistry and represents and warrants to the
 licensee that it is not a competitor of Gaussian, Inc. and that
 it will not use this program in any manner prohibited above.
 ---------------------------------------------------------------
  

 Cite this work as:
 Gaussian 09, Revision D.01,
 M. J. Frisch, G. W. Trucks, H. B. Schlegel, G. E. Scuseria, 
 M. A. Robb, J. R. Cheeseman, G. Scalmani, V. Barone, B. Mennucci, 
 G. A. Petersson, H. Nakatsuji, M. Caricato, X. Li, H. P. Hratchian, 
 A. F. Izmaylov, J. Bloino, G. Zheng, J. L. Sonnenberg, M. Hada, 
 M. Ehara, K. Toyota, R. Fukuda, J. Hasegawa, M. Ishida, T. Nakajima, 
 Y. Honda, O. Kitao, H. Nakai, T. Vreven, J. A. Montgomery, Jr., 
 J. E. Peralta, F. Ogliaro, M. Bearpark, J. J. Heyd, E. Brothers, 
 K. N. Kudin, V. N. Staroverov, T. Keith, R. Kobayashi, J. Normand, 
 K. Raghavachari, A. Rendell, J. C. Burant, S. S. Iyengar, J. Tomasi, 
 M. Cossi, N. Rega, J. M. Millam, M. Klene, J. E. Knox, J. B. Cross, 
 V. Bakken, C. Adamo, J. Jaramillo, R. Gomperts, R. E. Stratmann, 
 O. Yazyev, A. J. Austin, R. Cammi, C. Pomelli, J. W. Ochterski, 
 R. L. Martin, K. Morokuma, V. G. Zakrzewski, G. A. Voth, 
 P. Salvador, J. J. Dannenberg, S. Dapprich, A. D. Daniels, 
 O. Farkas, J. B. Foresman, J. V. Ortiz, J. Cioslowski, 
 and D. J. Fox, Gaussian, Inc., Wallingford CT, 2013.
 
 ******************************************
 Gaussian 09:  EM64W-G09RevD.01 13-Apr-2013
                26-Jun-2024 
 ******************************************
 %nprocshared=15
 Will use up to   15 processors via shared memory.
 %mem=50GB
 %chk=D:\Yaroslav\pink-mystery\OS9plus\conf1_singlet\OS9plus_conf1_833kjm_s_opt.c
 hk
 ----------------------------------------------------------------------
 # td=(nstates=60) wb97xd/cc-pvdz scrf=(cpcm,solvent=n,n-DiMethylFormam
 ide) geom=AllCheck guess=read maxdisk=900GB integral(ultrafinegrid)
 ----------------------------------------------------------------------
 1/29=7,38=1/1;
 2/12=2,40=1/2;
 3/5=16,11=9,14=-4,16=1,25=1,30=1,70=2101,72=148,74=-58,75=-5,116=-2/1,2,8,3;
 4/5=1/1;
 5/5=2,38=6,53=148/2;
 8/6=1,10=1,108=60/1;
 9/41=60,42=1,70=2/14;
 6/7=2,8=2,9=2,10=2/1;
 99/5=1,9=1/99;
 Structure from the checkpoint file:  "D:\Yaroslav\pink-mystery\OS9plus\conf1_singlet\OS9plus_conf1_833kjm_s_opt.chk"
 ---------------
 OS9plus_conf1_s
 ---------------
 Charge =  1 Multiplicity = 1
 Redundant internal coordinates found in file.
 O,0,1.0742163692,0.2461569226,-0.924691125
 C,0,2.1818757811,0.4565617947,-0.0772276904
 C,0,2.2449986795,0.7603063052,-1.5569646323
 C,0,2.1733371832,2.1894361469,-2.0087608985
 C,0,1.0763953622,2.6044447195,-2.7670434689
 C,0,0.9996880753,3.9210868291,-3.2167712763
 C,0,2.0193222107,4.824371327,-2.9139452514
 C,0,3.1156067062,4.4093005339,-2.1577841659
 C,0,3.1932288174,3.093986142,-1.7035726642
 C,0,2.9460751762,-0.1961255105,-2.480952565
 C,0,4.2906610475,0.0031874971,-2.8124692684
 C,0,4.9418906755,-0.8960366195,-3.6536997201
 C,0,4.251986802,-1.9885222369,-4.1816011174
 C,0,2.9078912519,-2.1785553452,-3.8644410944
 C,0,2.2558504438,-1.2873779439,-3.0127812846
 C,0,2.890339617,-0.7437502056,0.4097419815
 C,0,4.1792866968,-0.5030502748,1.0712005519
 C,0,4.8746045764,-1.6742691659,1.614056859
 C,0,4.3878959044,-2.9336008537,1.4188818634
 C,0,3.1587343001,-3.0978951058,0.7436631458
 C,0,2.4112079348,-2.0210032601,0.2484562992
 C,0,4.2154373488,0.7423820636,2.0291223761
 O,0,5.1399015397,0.859930793,2.7911264028
 H,0,4.8499701608,-0.1423380224,0.250236334
 C,0,3.0900665918,1.6945149196,1.9155196673
 C,0,2.0902909268,1.5523043692,0.9396738065
 C,0,1.0234549225,2.4491673158,0.9144112963
 C,0,0.9682755224,3.4917420969,1.8353451868
 C,0,1.9758628359,3.6530257159,2.7892623986
 C,0,3.0323655827,2.7539588551,2.8311049611
 H,0,0.2781984367,1.896232356,-2.9971064707
 H,0,0.1390190461,4.2433474054,-3.8050629144
 H,0,1.9572240829,5.8558109531,-3.2648003294
 H,0,3.9110180394,5.1143610428,-1.911669965
 H,0,4.0412921163,2.7800328908,-1.0911551756
 H,0,4.8349681552,0.8628129562,-2.4166576101
 H,0,5.9933371275,-0.7403406334,-3.8998448241
 H,0,4.7631728575,-2.6901476673,-4.8427083227
 H,0,2.3613578095,-3.0272196118,-4.278827256
 H,0,1.2062503731,-1.4369818934,-2.756814315
 H,0,5.7968840558,-1.4932320857,2.1673919576
 H,0,4.9183893527,-3.8047220233,1.7994973042
 H,0,2.7640104916,-4.1076367858,0.614535831
 H,0,1.4583241667,-2.1898275661,-0.2490036467
 H,0,0.2405849455,2.326919007,0.1672343597
 H,0,0.1283714497,4.1871695461,1.8071090231
 H,0,1.9299965485,4.4755269754,3.5033546167
 H,0,3.824181903,2.848155331,3.57423083
 Recover connectivity data from disk.
                          Input orientation:                          
 ---------------------------------------------------------------------
 Center     Atomic      Atomic             Coordinates (Angstroms)
 Number     Number       Type             X           Y           Z
 ---------------------------------------------------------------------
      1          8           0        1.074216    0.246157   -0.924691
      2          6           0        2.181876    0.456562   -0.077228
      3          6           0        2.244999    0.760306   -1.556965
      4          6           0        2.173337    2.189436   -2.008761
      5          6           0        1.076395    2.604445   -2.767043
      6          6           0        0.999688    3.921087   -3.216771
      7          6           0        2.019322    4.824371   -2.913945
      8          6           0        3.115607    4.409301   -2.157784
      9          6           0        3.193229    3.093986   -1.703573
     10          6           0        2.946075   -0.196126   -2.480953
     11          6           0        4.290661    0.003187   -2.812469
     12          6           0        4.941891   -0.896037   -3.653700
     13          6           0        4.251987   -1.988522   -4.181601
     14          6           0        2.907891   -2.178555   -3.864441
     15          6           0        2.255850   -1.287378   -3.012781
     16          6           0        2.890340   -0.743750    0.409742
     17          6           0        4.179287   -0.503050    1.071201
     18          6           0        4.874605   -1.674269    1.614057
     19          6           0        4.387896   -2.933601    1.418882
     20          6           0        3.158734   -3.097895    0.743663
     21          6           0        2.411208   -2.021003    0.248456
     22          6           0        4.215437    0.742382    2.029122
     23          8           0        5.139902    0.859931    2.791126
     24          1           0        4.849970   -0.142338    0.250236
     25          6           0        3.090067    1.694515    1.915520
     26          6           0        2.090291    1.552304    0.939674
     27          6           0        1.023455    2.449167    0.914411
     28          6           0        0.968276    3.491742    1.835345
     29          6           0        1.975863    3.653026    2.789262
     30          6           0        3.032366    2.753959    2.831105
     31          1           0        0.278198    1.896232   -2.997106
     32          1           0        0.139019    4.243347   -3.805063
     33          1           0        1.957224    5.855811   -3.264800
     34          1           0        3.911018    5.114361   -1.911670
     35          1           0        4.041292    2.780033   -1.091155
     36          1           0        4.834968    0.862813   -2.416658
     37          1           0        5.993337   -0.740341   -3.899845
     38          1           0        4.763173   -2.690148   -4.842708
     39          1           0        2.361358   -3.027220   -4.278827
     40          1           0        1.206250   -1.436982   -2.756814
     41          1           0        5.796884   -1.493232    2.167392
     42          1           0        4.918389   -3.804722    1.799497
     43          1           0        2.764010   -4.107637    0.614536
     44          1           0        1.458324   -2.189828   -0.249004
     45          1           0        0.240585    2.326919    0.167234
     46          1           0        0.128371    4.187170    1.807109
     47          1           0        1.929997    4.475527    3.503355
     48          1           0        3.824182    2.848155    3.574231
 ---------------------------------------------------------------------
                    Distance matrix (angstroms):
                    1          2          3          4          5
     1  O    0.000000
     2  C    1.410452   0.000000
     3  C    1.426482   1.511908   0.000000
     4  C    2.481856   2.594946   1.500556   0.000000
     5  C    2.992622   3.615328   2.496151   1.396605   0.000000
     6  C    4.331777   4.822576   3.781044   2.415648   1.393444
     7  C    5.080394   5.210677   4.290565   2.790334   2.416354
     8  C    4.797870   4.563410   3.799224   2.416170   2.790535
     9  C    3.634144   3.259423   2.523231   1.396972   2.419009
    10  C    2.474150   2.605359   1.503338   2.551665   3.379459
    11  C    3.737413   3.483399   2.516795   3.147807   4.135228
    12  C    4.869394   4.715756   3.796445   4.459916   5.289762
    13  C    5.069465   5.206695   4.297997   5.147558   5.760269
    14  C    4.228915   4.670538   3.794836   4.802340   5.237915
    15  C    2.847474   3.415300   2.512475   3.619821   4.074038
    16  C    2.461490   1.476418   2.558630   3.868699   4.959110
    17  C    3.766478   2.495875   3.499256   4.556257   5.832373
    18  C    4.957442   3.827750   4.785119   5.945576   7.206096
    19  C    5.155935   4.312548   5.205057   6.549696   7.691421
    20  C    4.279171   3.776543   4.584051   6.041748   7.012694
    21  C    2.881638   2.509381   3.320068   4.783243   5.680645
    22  C    4.340337   2.941730   4.091817   4.750646   6.026945
    23  O    5.542005   4.140058   5.224585   5.797155   7.102722
    24  H    3.973374   2.754023   3.296455   4.207684   5.557757
    25  C    3.772027   2.515627   3.693918   4.060212   5.177764
    26  C    2.492847   1.497708   2.623814   3.017632   3.984311
    27  C    2.870214   2.509136   3.232974   3.151924   3.685108
    28  C    4.261789   3.787226   4.538560   4.233831   4.688386
    29  C    5.119880   4.298440   5.227805   5.020171   5.725478
    30  C    4.922339   3.802600   4.883621   4.947819   5.931900
    31  H    2.766098   3.771251   2.689357   2.157393   1.091610
    32  H    5.014845   5.692957   4.649803   3.403484   2.154567
    33  H    6.141989   6.273992   5.381792   3.881578   3.405144
    34  H    5.720226   5.296244   4.675385   3.403549   3.881550
    35  H    3.905352   3.143882   2.742799   2.163345   3.410285
    36  H    4.092613   3.560459   2.730846   3.001764   4.157273
    37  H    5.832878   5.529215   4.668091   5.172252   6.053688
    38  H    6.130346   6.266951   5.389151   6.208772   6.777420
    39  H    4.860242   5.460988   4.665558   5.692280   5.970952
    40  H    2.491398   3.423089   2.710482   3.826976   4.043525
    41  H    5.906779   4.680630   5.618288   6.643221   7.963832
    42  H    6.213573   5.400847   6.265169   7.613677   8.757376
    43  H    4.917331   4.652884   5.355526   6.847168   7.702932
    44  H    2.556973   2.748893   3.321582   4.773462   5.428761
    45  H    2.493354   2.706771   3.073241   2.913655   3.063590
    46  H    4.887631   4.656720   5.247904   4.767986   4.932204
    47  H    6.182841   5.388515   6.285612   5.972340   6.599051
    48  H    5.879881   4.663694   5.760391   5.859095   6.915308
                    6          7          8          9         10
     6  C    0.000000
     7  C    1.395450   0.000000
     8  C    2.415971   1.394956   0.000000
     9  C    2.790248   2.416049   1.393695   0.000000
    10  C    4.613165   5.123645   4.619862   3.389726   0.000000
    11  C    5.132631   5.330393   4.606864   3.462231   1.399121
    12  C    6.239916   6.466198   5.806865   4.772955   2.418365
    13  C    6.814090   7.280609   6.805831   5.752694   2.794691
    14  C    6.423889   7.122779   6.808500   5.705301   2.417752
    15  C    5.361685   6.117123   5.824289   4.667875   1.396454
    16  C    6.203778   6.542900   5.761672   4.391590   2.942637
    17  C    6.933220   6.994873   5.974023   4.648693   3.772639
    18  C    8.346250   8.419487   7.370935   6.047309   4.761642
    19  C    8.941811   9.196177   8.266164   6.892660   4.978085
    20  C    8.343418   8.799924   8.048493   6.658044   4.343229
    21  C    7.022010   7.550729   6.901810   5.530379   3.326550
    22  C    6.925649   6.776391   5.673280   4.528572   4.778373
    23  O    7.912451   7.615947   6.417750   5.383573   5.807146
    24  H    6.584545   6.533974   5.433599   4.127464   3.329730
    25  C    5.972245   5.853736   4.895152   3.881622   4.787925
    26  C    4.906789   5.055872   4.336813   3.252692   3.935741
    27  C    4.385634   4.614072   4.202095   3.460860   4.714079
    28  C    5.070424   5.043447   4.625800   4.199115   6.011862
    29  C    6.090748   5.822415   5.132664   4.688291   6.597912
    30  C    6.486199   6.190191   5.257005   4.550252   6.076874
    31  H    2.160749   3.407701   3.882120   3.406647   3.429569
    32  H    1.091187   2.160375   3.406045   3.881429   5.416803
    33  H    2.159245   1.091248   2.158640   3.404822   6.182085
    34  H    3.406323   2.160362   1.091037   2.154168   5.427381
    35  H    3.882216   3.404445   2.156178   1.092169   3.462449
    36  H    4.970170   4.885601   3.949784   2.860408   2.166426
    37  H    6.865277   6.908749   6.151009   5.231279   3.405177
    38  H    7.779197   8.229024   7.766946   6.765730   3.885857
    39  H    7.159684   7.976677   7.769784   6.692765   3.404312
    40  H    5.381740   6.315878   6.179280   5.058367   2.154719
    41  H    9.017602   8.944388   7.793349   6.542626   5.605061
    42  H   10.010359  10.250970   9.294099   7.927159   5.935844
    43  H    9.069297   9.632523   8.963682   7.577680   4.991504
    44  H    6.808911   7.524335   7.066719   5.748422   3.342132
    45  H    3.816949   4.346820   4.243557   3.578605   4.549541
    46  H    5.105817   5.125434   4.969235   4.786782   6.748348
    47  H    6.806833   6.427395   5.784337   5.533218   7.659549
    48  H    7.432809   7.018502   5.982913   5.321066   6.834030
                   11         12         13         14         15
    11  C    0.000000
    12  C    1.392973   0.000000
    13  C    2.417214   1.395769   0.000000
    14  C    2.789032   2.413798   1.394021   0.000000
    15  C    2.417879   2.789039   2.417086   1.394517   0.000000
    16  C    3.591860   4.554515   4.948128   4.508616   3.523035
    17  C    3.918108   4.802154   5.459289   5.365102   4.581887
    18  C    4.769590   5.325358   5.837470   5.842620   5.330590
    19  C    5.151554   5.494512   5.681290   5.538412   5.186068
    20  C    4.852221   5.231121   5.165669   4.705606   4.266620
    21  C    4.122979   4.785052   4.797388   4.145774   3.346343
    22  C    4.898273   5.958743   6.784708   6.706388   5.777603
    23  O    5.731972   6.682695   7.584260   7.649238   6.827447
    24  H    3.116756   3.977088   4.838095   4.984819   4.322945
    25  C    5.162935   6.415327   7.217320   6.960015   5.820288
    26  C    4.617355   5.935072   6.590739   6.137370   4.869611
    27  C    5.526942   6.885649   7.489049   6.914069   5.559084
    28  C    6.694060   8.072907   8.776087   8.270547   6.928360
    29  C    7.075239   8.426331   9.252067   8.896504   7.625595
    30  C    6.403123   7.682542   8.553166   8.317183   7.147474
    31  H    4.440447   5.475208   5.682019   4.926606   3.747896
    32  H    6.016671   7.035890   7.476261   6.993641   5.974748
    33  H    6.316861   7.392356   8.224355   8.112606   7.153869
    34  H    5.203812   6.342101   7.464570   7.616181   6.703304
    35  H    3.276580   4.570689   5.686332   5.793385   4.839864
    36  H    1.091739   2.152965   3.403675   3.880673   3.410357
    37  H    2.152748   1.091040   2.160936   3.404364   3.880069
    38  H    3.405759   2.159749   1.091170   2.158889   3.406327
    39  H    3.880178   3.404684   2.159357   1.091167   2.154310
    40  H    3.404523   3.879695   3.407451   2.161562   1.090670
    41  H    5.413594   5.913778   6.552994   6.723017   6.278176
    42  H    6.013689   6.180482   6.286192   6.226293   6.048484
    43  H    5.565420   5.768481   5.450472   4.878862   4.622717
    44  H    4.404861   5.039949   4.828084   3.895223   3.014785
    45  H    5.539086   6.862161   7.323029   6.608194   5.218902
    46  H    7.494722   8.878591   9.539812   8.967422   7.597906
    47  H    8.090994   9.441855  10.306994   9.975846   8.705015
    48  H    7.007238   8.216522   9.150377   9.024481   7.934168
                   16         17         18         19         20
    16  C    0.000000
    17  C    1.468621   0.000000
    18  C    2.500709   1.466258   0.000000
    19  C    2.838395   2.464138   1.364146   0.000000
    20  C    2.392809   2.807495   2.393430   1.412003   0.000000
    21  C    1.373665   2.471273   2.837853   2.471847   1.401328
    22  C    2.566489   1.571631   2.539091   3.730280   4.185302
    23  O    3.647371   2.395547   2.806785   4.103590   4.876629
    24  H    2.056038   1.119782   2.051201   3.061110   3.440794
    25  C    2.872698   2.593948   3.824155   4.832232   4.934081
    26  C    2.488528   2.933545   4.314855   5.062803   4.775390
    27  C    3.732917   4.324286   5.685384   6.367743   5.946299
    28  C    4.864779   5.181976   6.480436   7.290561   7.029452
    29  C    5.082325   5.007972   6.177692   7.146992   7.152524
    30  C    4.256423   3.875668   4.948157   6.014996   6.214304
    31  H    5.039782   6.125861   7.425514   7.727733   6.872565
    32  H    7.085583   7.913912   9.317232   9.841298   9.148958
    33  H    7.610990   8.010842   9.434854  10.251771   9.883332
    34  H    6.383432   6.365909   7.710042   8.722940   8.663595
    35  H    3.999304   3.933632   5.277631   6.250282   6.220571
    36  H    3.788292   3.802717   4.762879   5.415163   5.337096
    37  H    5.310475   5.297016   5.703236   5.972996   5.929182
    38  H    5.906285   6.332348   6.537143   6.277548   5.826494
    39  H    5.241826   6.188626   6.547745   6.048100   5.085884
    40  H    3.652917   4.936079   5.711186   5.458862   4.338683
    41  H    3.478370   2.190597   1.090667   2.149460   3.400262
    42  H    3.926061   3.460885   2.138956   1.088643   2.170432
    43  H    3.372482   3.899307   3.372674   2.159244   1.091815
    44  H    2.139101   3.462917   3.925273   3.452163   2.168264
    45  H    4.063129   4.933483   6.291021   6.814681   6.186798
    46  H    5.821947   6.240964   7.544565   8.306602   7.961544
    47  H    6.142764   5.980043   7.075320   8.079695   8.153675
    48  H    4.877278   4.197837   5.039642   6.196128   6.618946
                   21         22         23         24         25
    21  C    0.000000
    22  C    3.749975   0.000000
    23  O    4.712825   1.203786   0.000000
    24  H    3.078465   2.085617   2.746766   0.000000
    25  C    4.128562   1.478486   2.380135   3.040470   0.000000
    26  C    3.653669   2.521729   3.634196   3.311037   1.404297
    27  C    4.727767   3.787407   4.795088   4.668966   2.417147
    28  C    5.915288   4.259177   5.024183   5.548573   2.781807
    29  C    6.232161   3.750380   4.220489   5.395547   2.416742
    30  C    5.464080   2.467646   2.833840   4.284052   1.401445
    31  H    5.516171   6.488158   7.629791   5.966750   5.664026
    32  H    7.799740   7.931687   8.942374   7.607414   6.923171
    33  H    8.636740   7.698851   8.471275   7.530023   6.740581
    34  H    7.604538   5.893786   6.459615   5.760934   5.197758
    35  H    5.244205   3.730748   4.468316   3.315651   3.335157
    36  H    4.614525   4.490354   5.216705   2.850066   4.743856
    37  H    5.628512   6.364907   6.932411   4.346041   6.940891
    38  H    5.647960   7.700931   8.427361   5.695345   8.227891
    39  H    4.638023   7.578769   8.533141   5.918458   7.822770
    40  H    3.290084   6.058880   7.178375   4.898484   5.931757
    41  H    3.927297   2.741909   2.521517   2.529238   4.189514
    42  H    3.445771   4.606845   4.774032   3.977178   5.796364
    43  H    2.147679   5.256461   5.921075   4.495279   5.955152
    44  H    1.088097   4.624866   5.665459   3.993084   4.736651
    45  H    4.860312   4.666566   5.748058   5.229775   3.402349
    46  H    6.795745   5.349762   6.095428   6.592570   3.872560
    47  H    7.282227   4.618763   4.887054   6.358750   3.406026
    48  H    6.063495   2.640970   2.509464   4.587399   2.149682
                   26         27         28         29         30
    26  C    0.000000
    27  C    1.393966   0.000000
    28  C    2.412999   1.392166   0.000000
    29  C    2.801268   2.423102   1.396855   0.000000
    30  C    2.430841   2.793266   2.407557   1.387901   0.000000
    31  H    4.347437   4.020089   5.135606   6.280959   6.503013
    32  H    5.793246   5.125890   5.750372   6.870779   7.391107
    33  H    6.017930   5.472016   5.707743   6.442382   6.923690
    34  H    4.912581   4.840249   5.033165   5.289527   5.370051
    35  H    3.072131   3.638559   4.302832   4.481713   4.050029
    36  H    4.390172   5.304731   6.319977   6.562117   5.862152
    37  H    6.626532   7.619039   8.720904   8.954659   8.141447
    38  H    7.653668   8.575691   9.859686  10.307857   9.566682
    39  H    6.948257   7.664889   9.045476   9.733046   9.188221
    40  H    4.835430   5.349156   6.740688   7.566997   7.219662
    41  H    4.951910   6.316494   6.948070   6.439790   5.110940
    42  H    6.118429   7.420581   8.297173   8.078125   6.901999
    43  H    5.709163   6.790518   7.903518   8.098055   7.215725
    44  H    3.976919   4.802387   6.071647   6.605894   6.033714
    45  H    2.148977   1.089084   2.160773   3.412445   3.882346
    46  H    3.397659   2.149124   1.090805   2.159435   3.396446
    47  H    3.891450   3.410363   2.162174   1.090202   2.151960
    48  H    3.409765   3.883028   3.405015   2.163394   1.089992
                   31         32         33         34         35
    31  H    0.000000
    32  H    2.486185   0.000000
    33  H    4.309182   2.489536   0.000000
    34  H    4.973118   4.309475   2.489582   0.000000
    35  H    4.309829   4.973361   4.304473   2.477762   0.000000
    36  H    4.708400   5.950430   5.825014   4.379995   2.462237
    37  H    6.358401   7.688899   7.759040   6.524295   4.908385
    38  H    6.675037   8.398384   9.132171   8.380186   6.672191
    39  H    5.497521   7.617374   8.949850   8.619177   6.834297
    40  H    3.468334   5.874006   7.348935   7.137936   5.347438
    41  H    8.283502  10.029457   9.912625   7.990965   5.653408
    42  H    8.777224  10.909853  11.302279   9.712755   7.244596
    43  H    7.434357   9.806241  10.722427   9.630295   7.209773
    44  H    5.063660   7.468056   8.606755   7.882343   5.663961
    45  H    3.193737   4.411594   5.213328   5.056061   4.029173
    46  H    5.324596   5.612463   5.643875   5.384925   5.068621
    47  H    7.185902   7.528245   6.907521   5.801297   5.333084
    48  H    7.527458   8.365462   7.700901   5.936189   4.670932
                   36         37         38         39         40
    36  H    0.000000
    37  H    2.472198   0.000000
    38  H    4.302837   2.490792   0.000000
    39  H    4.971798   4.308679   2.490039   0.000000
    40  H    4.309566   4.970717   4.309649   2.485891   0.000000
    41  H    5.243066   6.116927   7.186284   7.463893   6.732376
    42  H    6.290374   6.559607   6.736859   6.639951   6.336099
    43  H    6.179188   6.492062   5.982260   5.027368   4.574387
    44  H    5.041732   5.999666   5.681062   4.213807   2.630481
    45  H    5.470691   7.683969   8.409773   7.275434   4.863077
    46  H    7.144481   9.552356  10.630096   9.699085   7.322725
    47  H    7.519116   9.925894  11.359161  10.818486   8.641255
    48  H    6.391715   8.569968  10.119257   9.916169   8.080724
                   41         42         43         44         45
    41  H    0.000000
    42  H    2.500017   0.000000
    43  H    4.294741   2.477345   0.000000
    44  H    5.014710   4.333162   2.475583   0.000000
    45  H    7.033253   7.883093   6.926129   4.696503   0.000000
    46  H    8.032982   9.317439   8.784796   6.830993   2.482401
    47  H    7.236277   8.966390   9.094589   7.663525   4.312810
    48  H    4.971760   6.971926   7.633269   6.752457   4.972070
                   46         47         48
    46  H    0.000000
    47  H    2.491235   0.000000
    48  H    4.309837   2.498259   0.000000
 Stoichiometry    C27H19O2(1+)
 Framework group  C1[X(C27H19O2)]
 Deg. of freedom   138
 Full point group                 C1      NOp   1
 Largest Abelian subgroup         C1      NOp   1
 Largest concise Abelian subgroup C1      NOp   1
                         Standard orientation:                         
 ---------------------------------------------------------------------
 Center     Atomic      Atomic             Coordinates (Angstroms)
 Number     Number       Type             X           Y           Z
 ---------------------------------------------------------------------
      1          8           0       -0.013991    0.595293   -1.815718
      2          6           0       -0.016439   -0.388684   -0.805195
      3          6           0       -0.013791    1.087103   -0.476699
      4          6           0       -1.287848    1.730330   -0.013335
      5          6           0       -1.881411    2.708474   -0.814223
      6          6           0       -3.052501    3.335573   -0.393532
      7          6           0       -3.630724    2.990444    0.828689
      8          6           0       -3.036927    2.014474    1.629183
      9          6           0       -1.867596    1.383019    1.209284
     10          6           0        1.263655    1.746546   -0.037052
     11          6           0        1.557724    1.873802    1.324884
     12          6           0        2.751342    2.468253    1.727719
     13          6           0        3.649599    2.953450    0.775937
     14          6           0        3.349612    2.841374   -0.580803
     15          6           0        2.161368    2.235798   -0.988276
     16          6           0        1.236941   -1.141572   -0.600234
     17          6           0        1.296372   -1.969860    0.611070
     18          6           0        2.508453   -2.771309    0.807161
     19          6           0        3.565986   -2.667123   -0.048213
     20          6           0        3.456457   -1.825161   -1.176422
     21          6           0        2.307461   -1.074139   -1.458369
     22          6           0       -0.026267   -2.746424    0.953993
     23          8           0        0.015999   -3.628826    1.771723
     24          1           0        1.317295   -1.231054    1.452283
     25          6           0       -1.245670   -2.322146    0.233601
     26          6           0       -1.250005   -1.221567   -0.638613
     27          6           0       -2.415454   -0.900667   -1.332798
     28          6           0       -3.570785   -1.652881   -1.139125
     29          6           0       -3.577853   -2.730795   -0.250725
     30          6           0       -2.416562   -3.066474    0.431178
     31          1           0       -1.428998    2.971667   -1.772171
     32          1           0       -3.516282    4.096076   -1.023796
     33          1           0       -4.549029    3.480616    1.156212
     34          1           0       -3.490158    1.735641    2.581650
     35          1           0       -1.419844    0.602137    1.827811
     36          1           0        0.854903    1.510904    2.077373
     37          1           0        2.979096    2.554946    2.791195
     38          1           0        4.582735    3.421390    1.093650
     39          1           0        4.044855    3.224248   -1.329595
     40          1           0        1.926743    2.140010   -2.049095
     41          1           0        2.528362   -3.441015    1.667772
     42          1           0        4.475832   -3.242815    0.112728
     43          1           0        4.298072   -1.767621   -1.869554
     44          1           0        2.256542   -0.452328   -2.349837
     45          1           0       -2.411740   -0.056878   -2.021354
     46          1           0       -4.476882   -1.393501   -1.688275
     47          1           0       -4.487800   -3.311679   -0.098708
     48          1           0       -2.390586   -3.911516    1.119154
 ---------------------------------------------------------------------
 Rotational constants (GHZ):      0.2141628      0.1965798      0.1243521
 Standard basis: CC-pVDZ (5D, 7F)
 There are   530 symmetry adapted cartesian basis functions of A   symmetry.
 There are   501 symmetry adapted basis functions of A   symmetry.
   501 basis functions,  1090 primitive gaussians,   530 cartesian basis functions
    98 alpha electrons       98 beta electrons
       nuclear repulsion energy      2662.2487857368 Hartrees.
 NAtoms=   48 NActive=   48 NUniq=   48 SFac= 1.00D+00 NAtFMM=   60 NAOKFM=F Big=F
 Integral buffers will be    131072 words long.
 Raffenetti 1 integral format.
 Two-electron integral symmetry is turned on.
 Nuclear repulsion after empirical dispersion term =     2662.2039008962 Hartrees.
 ------------------------------------------------------------------------------
 Polarizable Continuum Model (PCM)
 =================================
 Model                : C-PCM.
 Atomic radii         : UFF (Universal Force Field).
 Polarization charges : Total charges.
 Charge compensation  : None.
 Solution method      : On-the-fly selection.
 Cavity type          : Scaled VdW (van der Waals Surface) (Alpha=1.100).
 Cavity algorithm     : GePol (No added spheres)
                        Default sphere list used, NSphG=   48.
                        Lebedev-Laikov grids with approx.  5.0 points / Ang**2.
                        Smoothing algorithm: Karplus/York (Gamma=1.0000).
                        Polarization charges: spherical gaussians, with
                                              point-specific exponents (IZeta= 3).
                        Self-potential: point-specific (ISelfS= 7).
                        Self-field    : sphere-specific E.n sum rule (ISelfD= 2).
 Solvent              : n,n-DiMethylFormamide, Eps=  37.219000 Eps(inf)=   2.046330
 ------------------------------------------------------------------------------
 One-electron integrals computed using PRISM.
 NBasis=   501 RedAO= T EigKep=  2.21D-04  NBF=   501
 NBsUse=   501 1.00D-06 EigRej= -1.00D+00 NBFU=   501
 Initial guess from the checkpoint file:  "D:\Yaroslav\pink-mystery\OS9plus\conf1_singlet\OS9plus_conf1_833kjm_s_opt.chk"
 B after Tr=     0.000000    0.000000    0.000000
         Rot=    1.000000    0.000000    0.000000    0.000000 Ang=   0.00 deg.
 Requested convergence on RMS density matrix=1.00D-08 within 128 cycles.
 Requested convergence on MAX density matrix=1.00D-06.
 Requested convergence on             energy=1.00D-06.
 No special actions if energy rises.
 Inv3:  Mode=1 IEnd=    34313772.
 Iteration    1 A*A^-1 deviation from unit magnitude is 5.33D-15 for   1118.
 Iteration    1 A*A^-1 deviation from orthogonality  is 3.25D-15 for   2595    372.
 Iteration    1 A^-1*A deviation from unit magnitude is 5.00D-15 for   2056.
 Iteration    1 A^-1*A deviation from orthogonality  is 2.20D-15 for   2182   1087.
 Error on total polarization charges =  0.01177
 SCF Done:  E(RwB97XD) =  -1190.22792754     A.U. after    1 cycles
            NFock=  1  Conv=0.30D-08     -V/T= 2.0066
 DoSCS=F DFT=T ScalE2(SS,OS)=  1.000000  1.000000
 ExpMin= 1.22D-01 ExpMax= 1.17D+04 ExpMxC= 4.01D+02 IAcc=3 IRadAn=         5 AccDes= 0.00D+00
 HarFok:  IExCor=  205 AccDes= 0.00D+00 IRadAn=         5 IDoV=-2 UseB2=F ITyADJ=14
 ICtDFT= 12500011 ScaDFX=  1.000000  1.000000  1.000000  1.000000
 Range of M.O.s used for correlation:    30   501
 NBasis=   501 NAE=    98 NBE=    98 NFC=    29 NFV=     0
 NROrb=    472 NOA=    69 NOB=    69 NVA=   403 NVB=   403

 **** Warning!!: The largest alpha MO coefficient is  0.12672531D+02

 Would need an additional         45091500000 words for in-memory AO integral storage.
 NEqPCM:  Using non-equilibrium solvation (IEInf=1, Eps=  37.2190, EpsInf=   2.0463)
 Inv3:  Mode=1 IEnd=    34313772.
 Iteration    1 A*A^-1 deviation from unit magnitude is 5.33D-15 for   1118.
 Iteration    1 A*A^-1 deviation from orthogonality  is 3.25D-15 for   2595    372.
 Iteration    1 A^-1*A deviation from unit magnitude is 5.00D-15 for   2056.
 Iteration    1 A^-1*A deviation from orthogonality  is 2.20D-15 for   2182   1087.
 Orbital symmetries:
       Occupied  (A) (A) (A) (A) (A) (A) (A) (A) (A) (A) (A) (A)
                 (A) (A) (A) (A) (A) (A) (A) (A) (A) (A) (A) (A)
                 (A) (A) (A) (A) (A) (A) (A) (A) (A) (A) (A) (A)
                 (A) (A) (A) (A) (A) (A) (A) (A) (A) (A) (A) (A)
                 (A) (A) (A) (A) (A) (A) (A) (A) (A) (A) (A) (A)
                 (A) (A) (A) (A) (A) (A) (A) (A) (A) (A) (A) (A)
                 (A) (A) (A) (A) (A) (A) (A) (A) (A) (A) (A) (A)
                 (A) (A) (A) (A) (A) (A) (A) (A) (A) (A) (A) (A)
                 (A) (A)
       Virtual   (A) (A) (A) (A) (A) (A) (A) (A) (A) (A) (A) (A)
                 (A) (A) (A) (A) (A) (A) (A) (A) (A) (A) (A) (A)
                 (A) (A) (A) (A) (A) (A) (A) (A) (A) (A) (A) (A)
                 (A) (A) (A) (A) (A) (A) (A) (A) (A) (A) (A) (A)
                 (A) (A) (A) (A) (A) (A) (A) (A) (A) (A) (A) (A)
                 (A) (A) (A) (A) (A) (A) (A) (A) (A) (A) (A) (A)
                 (A) (A) (A) (A) (A) (A) (A) (A) (A) (A) (A) (A)
                 (A) (A) (A) (A) (A) (A) (A) (A) (A) (A) (A) (A)
                 (A) (A) (A) (A) (A) (A) (A) (A) (A) (A) (A) (A)
                 (A) (A) (A) (A) (A) (A) (A) (A) (A) (A) (A) (A)
                 (A) (A) (A) (A) (A) (A) (A) (A) (A) (A) (A) (A)
                 (A) (A) (A) (A) (A) (A) (A) (A) (A) (A) (A) (A)
                 (A) (A) (A) (A) (A) (A) (A) (A) (A) (A) (A) (A)
                 (A) (A) (A) (A) (A) (A) (A) (A) (A) (A) (A) (A)
                 (A) (A) (A) (A) (A) (A) (A) (A) (A) (A) (A) (A)
                 (A) (A) (A) (A) (A) (A) (A) (A) (A) (A) (A) (A)
                 (A) (A) (A) (A) (A) (A) (A) (A) (A) (A) (A) (A)
                 (A) (A) (A) (A) (A) (A) (A) (A) (A) (A) (A) (A)
                 (A) (A) (A) (A) (A) (A) (A) (A) (A) (A) (A) (A)
                 (A) (A) (A) (A) (A) (A) (A) (A) (A) (A) (A) (A)
                 (A) (A) (A) (A) (A) (A) (A) (A) (A) (A) (A) (A)
                 (A) (A) (A) (A) (A) (A) (A) (A) (A) (A) (A) (A)
                 (A) (A) (A) (A) (A) (A) (A) (A) (A) (A) (A) (A)
                 (A) (A) (A) (A) (A) (A) (A) (A) (A) (A) (A) (A)
                 (A) (A) (A) (A) (A) (A) (A) (A) (A) (A) (A) (A)
                 (A) (A) (A) (A) (A) (A) (A) (A) (A) (A) (A) (A)
                 (A) (A) (A) (A) (A) (A) (A) (A) (A) (A) (A) (A)
                 (A) (A) (A) (A) (A) (A) (A) (A) (A) (A) (A) (A)
                 (A) (A) (A) (A) (A) (A) (A) (A) (A) (A) (A) (A)
                 (A) (A) (A) (A) (A) (A) (A) (A) (A) (A) (A) (A)
                 (A) (A) (A) (A) (A) (A) (A) (A) (A) (A) (A) (A)
                 (A) (A) (A) (A) (A) (A) (A) (A) (A) (A) (A) (A)
                 (A) (A) (A) (A) (A) (A) (A) (A) (A) (A) (A) (A)
                 (A) (A) (A) (A) (A) (A) (A)
   240 initial guesses have been made.
 Convergence on wavefunction:    0.001000000000000
 Iteration     1 Dimension   240 NMult     0 NNew    240
 CISAX will form   240 AO SS matrices at one time.
 New state      2 was old state      3
 New state      3 was old state      6
 New state      4 was old state      7
 New state      6 was old state      8
 New state      7 was old state      2
 New state      8 was old state     25
 New state      9 was old state      4
 New state     11 was old state      9
 New state     12 was old state     50
 New state     13 was old state     36
 New state     14 was old state     12
 New state     15 was old state     13
 New state     16 was old state     15
 New state     17 was old state     65
 New state     18 was old state     11
 New state     19 was old state     14
 New state     20 was old state     16
 New state     21 was old state     17
 New state     22 was old state     32
 New state     23 was old state     19
 New state     24 was old state     21
 New state     25 was old state     18
 New state     26 was old state     28
 New state     27 was old state     23
 New state     28 was old state     22
 New state     29 was old state     37
 New state     30 was old state     39
 New state     31 was old state     20
 New state     32 was old state     26
 New state     33 was old state     48
 New state     35 was old state     33
 New state     36 was old state     29
 New state     37 was old state     24
 New state     38 was old state     41
 New state     39 was old state     27
 New state     40 was old state     44
 New state     41 was old state     54
 New state     42 was old state     45
 New state     43 was old state     86
 New state     44 was old state     30
 New state     45 was old state     40
 New state     46 was old state     64
 New state     47 was old state     31
 New state     48 was old state     69
 New state     49 was old state    100
 New state     50 was old state     42
 New state     51 was old state     60
 New state     52 was old state     35
 New state     53 was old state     46
 New state     54 was old state     49
 New state     55 was old state     72
 New state     56 was old state     52
 New state     57 was old state     56
 New state     58 was old state     38
 New state     59 was old state     51
 New state     60 was old state     59
 Iteration     2 Dimension   360 NMult   240 NNew    120
 New state      5 was old state      6
 New state      6 was old state      5
 New state      7 was old state      8
 New state      8 was old state      7
 New state     10 was old state     11
 New state     11 was old state     10
 New state     12 was old state     15
 New state     13 was old state     12
 New state     14 was old state     13
 New state     15 was old state     14
 New state     16 was old state     17
 New state     17 was old state     16
 New state     18 was old state     19
 New state     19 was old state     18
 New state     21 was old state     23
 New state     22 was old state     21
 New state     23 was old state     24
 New state     24 was old state     27
 New state     25 was old state     22
 New state     27 was old state     25
 New state     28 was old state     34
 New state     29 was old state     28
 New state     30 was old state     31
 New state     31 was old state     29
 New state     32 was old state     30
 New state     33 was old state     32
 New state     34 was old state     35
 New state     35 was old state     33
 New state     37 was old state     45
 New state     38 was old state     41
 New state     39 was old state     44
 New state     40 was old state     37
 New state     41 was old state     38
 New state     42 was old state     39
 New state     43 was old state     40
 New state     44 was old state     43
 New state     45 was old state     42
 New state     46 was old state     49
 New state     47 was old state     52
 New state     48 was old state     54
 New state     49 was old state     46
 New state     50 was old state     47
 New state     51 was old state     48
 New state     52 was old state     53
 New state     53 was old state     51
 New state     54 was old state     50
 New state     56 was old state     61
 New state     57 was old state     56
 New state     58 was old state     57
 New state     59 was old state     58
 Iteration     3 Dimension   480 NMult   360 NNew    120
 New state     52 was old state     53
 New state     53 was old state     52
 Iteration     4 Dimension   598 NMult   480 NNew    118
 Iteration     5 Dimension   666 NMult   598 NNew     68
 Iteration     6 Dimension   670 NMult   666 NNew      4
 ***********************************************************************
 Excited states from <AA,BB:AA,BB> singles matrix:
 ***********************************************************************
 
 Ground to excited state transition densities written to RWF  633
 Ground to excited state transition electric dipole moments (Au):
       state          X           Y           Z        Dip. S.      Osc.
         1         0.0269      0.4208     -0.0425      0.1796      0.0138
         2         0.7880     -0.8496      0.1569      1.3674      0.1209
         3        -0.3696      0.7374     -0.2417      0.7388      0.0668
         4         1.1057      0.0116     -0.1353      1.2410      0.1168
         5        -0.2666     -0.0201      0.1497      0.0939      0.0091
         6        -0.2416     -0.0257     -0.0218      0.0595      0.0059
         7        -0.1913      0.1327      0.1516      0.0772      0.0083
         8         0.0844     -0.1194     -0.0294      0.0223      0.0024
         9        -0.2563      0.1263     -0.2290      0.1341      0.0144
        10         0.4184      0.8605     -0.2683      0.9874      0.1123
        11        -0.0406     -0.0529      0.0542      0.0074      0.0008
        12        -0.8355      0.7056     -0.5768      1.5287      0.1926
        13         0.0275      0.2628      0.0847      0.0770      0.0101
        14        -0.2511     -0.0274     -0.0655      0.0681      0.0090
        15         0.0619     -0.0524      0.0705      0.0115      0.0015
        16         0.4153     -0.1463     -0.3998      0.3537      0.0487
        17         0.6628      0.4264      0.1023      0.6316      0.0872
        18        -1.4971     -0.5078     -0.5900      2.8474      0.4002
        19        -0.3753     -0.0468     -0.0679      0.1476      0.0211
        20        -0.8877      0.1650      0.2007      0.8555      0.1236
        21        -0.0163      0.2969     -0.0316      0.0894      0.0130
        22        -0.0485     -0.6544     -0.1474      0.4524      0.0662
        23         0.1738     -0.5115     -0.3019      0.3830      0.0564
        24        -0.2186     -0.5773     -0.0926      0.3896      0.0589
        25         1.3267      0.7384     -0.1409      2.3252      0.3539
        26        -0.8348     -0.1747     -0.0469      0.7297      0.1120
        27        -0.0477     -0.0710     -0.1295      0.0241      0.0037
        28        -0.6330      0.6264     -0.2081      0.8364      0.1304
        29         0.9059      0.1924     -0.0402      0.8592      0.1351
        30        -0.2582     -0.1925      0.5424      0.3979      0.0629
        31         0.1058     -0.3709     -0.1859      0.1833      0.0290
        32         0.7323     -0.0387     -0.3399      0.6533      0.1046
        33         0.4977     -0.2594      0.5557      0.6239      0.1011
        34        -0.9846      0.1987      0.2482      1.0706      0.1746
        35        -0.5451      0.5849     -0.1640      0.6662      0.1089
        36         0.3482      0.1622     -0.2020      0.1883      0.0309
        37        -0.1529      0.5374     -0.1629      0.3387      0.0560
        38         0.5887      0.2298      0.8050      1.0474      0.1740
        39        -0.2113     -0.4494      0.6561      0.6771      0.1138
        40         0.4277     -0.1456     -0.2057      0.2464      0.0415
        41         0.2754     -0.3689     -0.5666      0.5330      0.0902
        42         0.9036     -0.3971      0.7997      1.6137      0.2752
        43        -1.2028      0.6790      0.0815      1.9143      0.3272
        44         0.2210     -0.1840     -0.9159      0.9216      0.1583
        45         0.1918     -0.4504      0.6662      0.6834      0.1178
        46         1.2555      0.1302     -1.1962      3.0241      0.5237
        47         0.0126      0.4194      0.4377      0.3676      0.0640
        48        -0.8262     -0.8368      0.2576      1.4492      0.2531
        49        -0.3402     -0.1135      0.1792      0.1608      0.0283
        50         0.2464      0.5244      0.0470      0.3380      0.0601
        51         0.3506      0.4146     -0.3894      0.4465      0.0794
        52         0.2653     -0.4371     -0.0120      0.2616      0.0469
        53        -0.2534     -0.2023      0.1490      0.1273      0.0229
        54         0.0751     -0.0395      0.0895      0.0152      0.0028
        55         0.3128      0.2351     -0.1951      0.1912      0.0346
        56         0.3543      0.0475      0.1268      0.1439      0.0261
        57        -0.3734      0.0810     -0.0018      0.1460      0.0266
        58         0.1482      0.1927     -0.3231      0.1635      0.0301
        59        -0.2017     -0.0319      0.2981      0.1305      0.0242
        60         0.2078      0.1026     -0.0427      0.0555      0.0103
 Ground to excited state transition velocity dipole moments (Au):
       state          X           Y           Z        Dip. S.      Osc.
         1        -0.0006     -0.0508      0.0044      0.0026      0.0150
         2        -0.1041      0.1146     -0.0216      0.0244      0.1227
         3         0.0499     -0.0985      0.0338      0.0133      0.0655
         4        -0.1535     -0.0008      0.0184      0.0239      0.1129
         5         0.0373      0.0027     -0.0237      0.0020      0.0090
         6         0.0358      0.0028      0.0035      0.0013      0.0059
         7         0.0300     -0.0224     -0.0227      0.0019      0.0079
         8        -0.0128      0.0209      0.0059      0.0006      0.0026
         9         0.0428     -0.0211      0.0363      0.0036      0.0148
        10        -0.0719     -0.1478      0.0474      0.0293      0.1143
        11         0.0080      0.0097     -0.0082      0.0002      0.0009
        12         0.1552     -0.1289      0.1066      0.0521      0.1836
        13        -0.0054     -0.0524     -0.0168      0.0031      0.0103
        14         0.0484      0.0057      0.0134      0.0026      0.0086
        15        -0.0112      0.0113     -0.0121      0.0004      0.0013
        16        -0.0830      0.0306      0.0790      0.0141      0.0454
        17        -0.1347     -0.0854     -0.0213      0.0259      0.0834
        18         0.3136      0.1080      0.1231      0.1251      0.3957
        19         0.0789      0.0117      0.0120      0.0065      0.0202
        20         0.1891     -0.0364     -0.0398      0.0387      0.1190
        21         0.0064     -0.0621      0.0042      0.0039      0.0119
        22         0.0092      0.1434      0.0311      0.0216      0.0657
        23        -0.0373      0.1100      0.0660      0.0178      0.0539
        24         0.0509      0.1289      0.0200      0.0196      0.0576
        25        -0.3008     -0.1643      0.0333      0.1186      0.3464
        26         0.1900      0.0373      0.0118      0.0376      0.1089
        27         0.0112      0.0151      0.0284      0.0012      0.0033
        28         0.1447     -0.1446      0.0494      0.0443      0.1263
        29        -0.2124     -0.0428      0.0098      0.0470      0.1329
        30         0.0615      0.0407     -0.1286      0.0220      0.0618
        31        -0.0255      0.0834      0.0445      0.0096      0.0269
        32        -0.1751      0.0089      0.0832      0.0377      0.1045
        33        -0.1179      0.0636     -0.1317      0.0353      0.0968
        34         0.2387     -0.0456     -0.0587      0.0625      0.1704
        35         0.1304     -0.1396      0.0396      0.0381      0.1035
        36        -0.0854     -0.0416      0.0474      0.0113      0.0306
        37         0.0378     -0.1325      0.0404      0.0206      0.0555
        38        -0.1449     -0.0603     -0.1998      0.0646      0.1727
        39         0.0542      0.1112     -0.1635      0.0420      0.1112
        40        -0.1074      0.0367      0.0514      0.0155      0.0409
        41        -0.0684      0.0915      0.1416      0.0331      0.0869
        42        -0.2278      0.1017     -0.2046      0.1041      0.2713
        43         0.3002     -0.1733     -0.0215      0.1206      0.3136
        44        -0.0524      0.0460      0.2329      0.0591      0.1529
        45        -0.0495      0.1141     -0.1735      0.0455      0.1174
        46        -0.3204     -0.0331      0.3085      0.1989      0.5104
        47        -0.0004     -0.1053     -0.1124      0.0237      0.0605
        48         0.2084      0.2141     -0.0667      0.0937      0.2385
        49         0.0872      0.0278     -0.0478      0.0107      0.0269
        50        -0.0648     -0.1372     -0.0141      0.0232      0.0580
        51        -0.0883     -0.1122      0.0986      0.0301      0.0752
        52        -0.0699      0.1136      0.0025      0.0178      0.0441
        53         0.0662      0.0554     -0.0367      0.0088      0.0217
        54        -0.0226      0.0073     -0.0255      0.0012      0.0030
        55        -0.0860     -0.0613      0.0535      0.0140      0.0344
        56        -0.0934     -0.0130     -0.0324      0.0099      0.0244
        57         0.1022     -0.0236      0.0009      0.0110      0.0268
        58        -0.0393     -0.0519      0.0887      0.0121      0.0292
        59         0.0563      0.0101     -0.0790      0.0095      0.0228
        60        -0.0535     -0.0284      0.0104      0.0038      0.0090
 Ground to excited state transition magnetic dipole moments (Au):
       state          X           Y           Z
         1        -0.0275     -0.1423      0.1967
         2         0.3823      0.7446      0.4041
         3        -0.4971     -0.7422     -0.6088
         4         0.1410      0.0889     -0.4317
         5         0.1159      0.5018      0.5032
         6         0.0742     -0.1695      0.0488
         7         0.1035      0.8068      0.0848
         8         0.1963     -0.4160      0.0355
         9        -0.2911      0.3426     -0.3123
        10        -0.5137      0.2932      0.5184
        11         0.2230      0.1401     -0.1899
        12        -0.6548      0.3535      1.2103
        13         0.2581      0.1267     -0.0819
        14         0.1500     -0.0722     -0.0459
        15         0.0297      0.1031      0.1553
        16        -0.4528     -0.1125     -0.2982
        17        -0.0433      0.3267      0.1501
        18         0.0947     -0.4759      0.2776
        19        -0.0156     -0.1526     -0.0870
        20        -0.0925      0.1751      0.5457
        21        -0.3123     -0.2882     -0.6589
        22         0.5852     -0.0081      0.1959
        23         0.2388     -0.0535      0.4716
        24        -0.3896      0.0926     -0.1129
        25         0.0474     -0.2678     -0.4031
        26        -0.4349      0.1004      0.9022
        27        -0.5168      0.5452      0.3518
        28        -0.9005      0.5485      0.9255
        29        -0.6401     -0.0062      0.1838
        30         0.3539      0.0453     -0.7760
        31        -0.0824      0.1120     -0.5025
        32        -0.3569      0.8458      0.2794
        33         0.5640     -0.3727      0.3979
        34        -0.0544      0.2005     -0.5772
        35        -0.6769      1.1052      0.1632
        36        -0.2041     -0.0555     -0.0893
        37         1.2037      1.8648      1.9612
        38        -1.0121      1.0796      0.1520
        39        -0.6681      1.2098     -0.4542
        40         0.0238      0.2554      0.1353
        41         0.0475     -0.5501     -0.4883
        42        -1.4273     -0.2427     -0.2331
        43         0.4522      0.6788      0.8656
        44         0.8097     -0.2433     -0.2622
        45        -1.1364     -0.0069     -0.0584
        46         1.0180      0.1001      0.5932
        47        -1.0888     -0.3947     -0.5272
        48         0.1941      0.1228     -0.4356
        49         0.0625      0.4752      0.2678
        50         0.1619      0.5606      0.0972
        51         0.4148     -0.1522     -0.3075
        52         0.6426      0.3487      0.5330
        53         0.2952      0.0878      0.1676
        54        -0.2162     -0.2829     -0.1938
        55         0.1924      0.5971      0.2345
        56        -0.3899     -0.3904     -0.2533
        57         0.1195      0.2541      0.0107
        58        -0.2139     -0.1419     -0.1582
        59        -0.2181      0.1570      0.0517
        60         0.3024     -0.1252     -0.1073
 Ground to excited state transition velocity quadrupole moments (Au):
       state          XX          YY          ZZ          XY          XZ          YZ
         1         0.0281      0.0455     -0.0001     -0.0408      0.0108     -0.0137
         2        -0.3055     -0.2159      0.0315      0.6664     -0.1039      0.1422
         3         0.1295      0.2928     -0.0180     -0.2046      0.2031     -0.2174
         4        -0.3923      0.1188      0.0385      0.6817      0.1417     -0.1660
         5        -0.0182     -0.1297     -0.0103      0.0426     -0.2106      0.1032
         6        -0.1496     -0.0274      0.0170     -0.1291      0.0284     -0.0237
         7        -0.0478     -0.1569     -0.0029      0.2123     -0.1768      0.0963
         8        -0.0318     -0.1008      0.0241      0.1185      0.0850      0.0383
         9         0.0407      0.2102     -0.0084     -0.4282      0.0040     -0.1395
        10         0.0689      0.5792     -0.0819      0.4914     -0.0675     -0.2947
        11         0.0621     -0.0487     -0.0049      0.0242     -0.0117      0.0218
        12        -1.2662      0.6295      0.0651     -0.8894     -0.3632     -0.6879
        13         0.0241      0.0391     -0.0213     -0.2770     -0.2086      0.0166
        14        -0.0281      0.1988      0.0051     -0.1002     -0.0423     -0.0277
        15         0.0084     -0.0387      0.0469     -0.1396     -0.0676     -0.0319
        16        -0.5970      0.2045      0.0057      0.1700      0.4320     -0.4218
        17         0.0925     -0.3428      0.0040      0.0745     -0.0895      0.0082
        18        -0.8103      0.3447      0.1029      0.1460      0.2274     -0.1685
        19        -0.2817      0.0225     -0.0122      0.2246      0.1834     -0.1103
        20        -0.0218     -0.2966      0.0446     -0.0933     -0.3614      0.1496
        21        -0.3431      0.0277     -0.0431      0.8876      0.5209     -0.2183
        22        -0.1034     -0.2072      0.1448     -1.3189     -0.3593      0.1665
        23        -0.6452      0.0443      0.0831     -1.0261     -0.0761      0.0539
        24        -0.4263      0.0731     -0.0547     -0.5231     -0.1505     -0.2577
        25         0.0918     -0.0327     -0.1458      0.1894      0.4025      0.1140
        26        -0.7108      0.4755     -0.0559     -0.9871     -0.4717     -0.3542
        27        -0.0709      0.6847     -0.1489      0.3215     -0.2184     -0.3447
        28        -0.1431      0.9721     -0.2788      0.9045     -0.4311     -0.5304
        29        -0.6378      0.2989     -0.1091     -1.8055     -0.3434     -0.4940
        30         0.7646     -0.6126      0.0014      0.8873      0.2119      0.2996
        31         0.6124      0.3230     -0.0550      1.7474      0.2066     -0.0650
        32        -0.0275      0.5069     -0.1123      0.1870     -0.5792     -0.3293
        33        -0.0180     -0.5262      0.1342     -0.9689      0.1583      0.5026
        34        -0.5689     -0.7701      0.0637      1.4227      0.1019     -0.2477
        35        -0.7411     -0.2077     -0.0093      1.5781     -0.6151     -0.4152
        36         0.1317      0.6318     -0.1811     -0.1402     -0.1720     -0.2998
        37         0.0718     -1.2352      0.2832     -1.4500     -2.1185      0.6831
        38        -0.3942     -0.3803     -0.2790     -0.7649     -1.0142     -0.9633
        39         1.4307      0.3208     -0.2468      1.0555     -0.9486     -0.5181
        40         0.0304      0.2065      0.0741     -0.2869     -0.2224     -0.0193
        41        -0.1422      0.4567      0.0711      0.1685      0.5062      0.0311
        42         0.1319      0.9729     -0.3112     -1.1787      0.1245     -0.8672
        43        -0.2068     -0.6634      0.1449      0.4697     -0.5406      0.4201
        44         0.2402     -0.1489      0.3132      0.8169      0.3856      0.6857
        45         0.4235      1.2339     -0.4115     -1.1014     -0.0907     -0.9099
        46         0.1913     -0.1849      0.3612     -0.8186     -0.4028      0.9480
        47        -2.3687     -0.1457     -0.1073     -0.1769      0.4725     -1.1434
        48         2.7579      0.9976     -0.1198      0.5360     -0.1385      0.3639
        49         0.9738      0.2688      0.0376     -0.2774     -0.5848      0.2820
        50        -0.8909     -1.1728      0.1675      0.4269     -0.4145      0.1839
        51        -0.6547     -0.3892      0.0869      0.2421      0.3020      0.1498
        52         2.4377      0.3913      0.0183     -1.1531     -0.6907      0.9034
        53         1.1387     -0.0533      0.1445     -0.2264     -0.0300      0.5698
        54        -0.0974      0.2367     -0.0793      0.2292      0.4856     -0.1854
        55         0.0179     -0.7032      0.1531      0.1634     -0.6648      0.2265
        56        -0.7194     -0.2316     -0.0411      0.6275      0.6075     -0.1973
        57        -0.1899     -0.2894     -0.0041      0.0853     -0.3525      0.1419
        58        -0.9287     -0.1467      0.0144     -0.0536      0.0538     -0.2452
        59        -0.2123     -0.5746      0.0519     -0.0209     -0.3338      0.1071
        60         1.5370      0.2117     -0.0102      0.6252      0.4448      0.3029
 <0|del|b> * <b|rxdel|0> + <0|del|b> * <b|delr+rdel|0>
 Rotatory Strengths (R) in cgs (10**-40 erg-esu-cm/Gauss)
       state          XX          YY          ZZ    R(velocity)    E-M Angle
         1        25.9002      3.2796     20.4648     16.5482       49.35
         2       197.4666   -130.3741    129.0154     65.3693       75.33
         3       171.0260   -128.6585    101.9904     48.1193       77.19
         4        11.5931    -41.5915   -118.5071    -49.5018      114.47
         5       -26.9225     -6.6779      3.0651    -10.1784      101.30
         6        -1.9985      5.8290      7.4460      3.7588       70.04
         7       -63.2965     19.5638    -30.5651    -24.7659      118.13
         8       -20.9406     -7.6520    -19.5752    -16.0559      161.04
         9       -74.4660    -31.1690    -30.1915    -45.2755      160.90
        10       -11.2956    123.0360    -36.5259     25.0715       82.25
        11         5.8275      7.6137      5.8611      6.4341       15.54
        12      -108.8932     28.9537     11.9366    -22.6677       93.21
        13       -20.7061     -8.5476      5.3677     -7.9620      113.74
        14        -3.8154     11.8957     14.2168      7.4324       44.46
        15         3.0901     -6.2666     -0.5120     -1.2295      106.01
        16       -45.8763     61.0133     21.1462     12.0944       80.72
        17       -68.9000      5.3197    -22.7657    -28.7820      115.71
        18       -39.9159    -11.6439     93.3842     13.9415       86.38
        19        -3.7552    -22.5854     12.9307     -4.4699      106.59
        20       -61.2089    -23.8372    -63.6230    -49.5563      113.52
        21        82.6989    -15.8505    -24.3087     14.1799       74.43
        22        24.9332     87.0382    -78.6428     11.1095       83.46
        23       -54.6397    140.8616    -33.8743     17.4492       76.69
        24        29.0669    -38.5688    -22.1065    -10.5361      100.02
        25       159.5776   -105.6961     -3.2393     16.8807       84.40
        26        31.1926   -195.9217    -44.7761    -69.8351      110.46
        27        46.7653    -13.4625      4.5677     12.6235       63.96
        28       -77.3972   -311.5045   -106.6579   -165.1865      123.71
        29       -45.4368    390.3370     68.9219    137.9407       17.15
        30       -31.4767    379.0428     20.6138    122.7266       12.95
        31        70.6756   -143.3604     40.1952    -10.8299      102.35
        32        75.7475    188.1549     10.6034     91.5020       59.95
        33        60.2226   -444.7025    -30.3725   -138.2841      165.41
        34       -78.2916     65.5760     46.7867     11.3570       85.59
        35      -246.8524   -286.1195   -147.8648   -226.9456      157.89
        36       -22.6050     65.3166      1.8597     14.8571       50.50
        37      -723.6403    298.2340     76.0728   -116.4445      106.73
        38        -5.3012    146.1654      4.4482     48.4375       82.21
        39       198.7393    256.1384     29.3440    161.4072       54.65
        40        13.6295     29.6612     -4.7712     12.8398       67.58
        41      -197.5806   -136.9635     -7.1450   -113.8964      156.23
        42       347.5488    455.1451    159.7371    320.8103       42.62
        43      -330.9496    349.3824    -19.7561     -0.4411       90.07
        44       137.5584   -452.3568      0.0863   -104.9040      122.20
        45       288.1899   -108.8279      0.1239     59.8286       74.32
        46      -117.3135   -264.5089    -16.8543   -132.8922      106.12
        47       230.7173     54.4006    -11.1093     91.3362       58.90
        48        66.4563    244.4406    -52.2893     86.2025       50.55
        49        40.0603      5.2929    -29.6986      5.2182       84.08
        50      -187.0893    -23.5499    -24.6779    -78.4390      169.99
        51        58.9671   -137.8047    -53.2599    -44.0325      122.27
        52       153.2286   -136.5691    -27.1095     -3.4833       91.89
        53        11.3753     56.1102    -19.6267     15.9529       56.28
        54        -8.5084     25.9005      2.8407      6.7443       56.70
        55       -73.0489    -41.9329      9.2163    -35.2552      120.81
        56         1.0625    108.4610     19.7258     43.0831       34.83
        57       -18.3975     34.4006      0.0570      5.3534       77.82
        58       -11.0665     11.1818      4.2741      1.4631       87.04
        59         3.2105    -15.2599    -25.5739    -12.5411      123.62
        60        27.3945    -50.8241    -11.4767    -11.6354      130.52
 1/2[<0|r|b>*<b|rxdel|0> + (<0|rxdel|b>*<b|r|0>)*]
 Rotatory Strengths (R) in cgs (10**-40 erg-esu-cm/Gauss)
       state          XX          YY          ZZ     R(length)
         1         0.5227     42.3546      5.9139     16.2638
         2      -213.0133    447.3582    -44.8324     63.1708
         3      -129.9300    387.0184   -104.0576     51.0103
         4      -110.2665     -0.7313    -41.3070    -50.7683
         5        21.8448      7.1287    -53.2795     -8.1020
         6        12.6726     -3.0829      0.7526      3.4474
         7        13.9992    -75.7261     -9.0916    -23.6062
         8       -11.7200    -35.1389      0.7381    -15.3736
         9       -52.7678    -30.6117    -50.5696    -44.6497
        10       151.9902   -178.3936     98.3504     23.9823
        11         6.4043      5.2421      7.2733      6.3065
        12      -386.8909   -176.4126    493.6735    -23.2100
        13        -5.0157    -23.5352      4.9046     -7.8821
        14        26.6347     -1.4011     -2.1268      7.7023
        15        -1.2998      3.8211     -7.7373     -1.7387
        16       132.9949    -11.6397    -84.2960     12.3531
        17        20.2817    -98.5114    -10.8609    -29.6969
        18       100.2329   -170.8832    115.8329     15.0609
        19        -4.1337     -5.0545     -4.1730     -4.4538
        20       -58.0738    -20.4287    -77.4622    -51.9882
        21        -3.5935     60.5143    -14.7475     14.0578
        22        20.0800     -3.7266     20.4226     12.2587
        23       -29.3404    -19.3589    100.6790     17.3266
        24       -60.2159     37.7970     -7.3886     -9.9359
        25       -44.4507    139.8563    -40.1614     18.4147
        26      -256.7326     12.3967     29.9438    -71.4640
        27       -17.4216     27.3834     32.2257     14.0625
        28      -403.1028   -242.9704    136.2335   -169.9466
        29       410.0172      0.8408      5.2207    138.6929
        30        64.6218      6.1640    297.6388    122.8082
        31         6.1621     29.3780    -66.0780    -10.1793
        32       184.8436     23.1222     67.1422     91.7027
        33      -198.5182    -68.3815   -156.3622   -141.0873
        34       -37.8537    -28.1785    101.3184     11.7621
        35      -260.9508   -457.1711     18.9258   -233.0654
        36        50.2516      6.3691    -12.7599     14.6203
        37       130.1964   -708.6245    225.8532   -117.5250
        38       421.3496   -175.4591    -86.5239     53.1222
        39       -99.8370    384.5120    210.7221    165.1324
        40        -7.1851     26.2865     19.6770     12.9262
        41        -9.2523   -143.4975   -195.6563   -116.1354
        42       912.0224    -68.1469    131.8156    325.2304
        43       384.5893   -325.9263    -49.8951      2.9226
        44      -126.5338    -31.6473   -169.8474   -109.3428
        45       154.1140     -2.1921     27.5306     59.8175
        46      -903.7817     -9.2186    501.8154   -137.0616
        47         9.6800    117.0712    163.1703     96.6405
        48       113.4154     72.6600     79.3454     88.4736
        49        15.0287     38.1516    -33.9461      6.4114
        50       -28.2039   -207.9145     -3.2305    -79.7830
        51      -102.8368     44.6299    -84.6872    -47.6314
        52      -120.5557    107.7847      4.5205     -2.7501
        53        52.8913     12.5587    -17.6662     15.9279
        54        11.4829     -7.9044     12.2727      5.2838
        55       -42.5560    -99.2584     32.3592    -36.4851
        56        97.6887     13.1221     22.7054     44.5054
        57        31.5563    -14.5551      0.0138      5.6717
        58        22.4080     19.3368    -36.1509      1.8646
        59       -31.1033      3.5429    -10.9082    -12.8229
        60       -44.4312      9.0848     -3.2382    -12.8615
  1/2[<0|del|b>*<b|r|0> + (<0|r|b>*<b|del|0>)*] (Au)
       state          X           Y           Z        Dip. S.   Osc.(frdel)
         1         0.0000     -0.0214     -0.0002      0.0216      0.0144
         2        -0.0820     -0.0973     -0.0034      0.1827      0.1218
         3        -0.0185     -0.0726     -0.0082      0.0992      0.0661
         4        -0.1698      0.0000     -0.0025      0.1723      0.1148
         5        -0.0100     -0.0001     -0.0035      0.0136      0.0090
         6        -0.0087     -0.0001     -0.0001      0.0088      0.0059
         7        -0.0057     -0.0030     -0.0034      0.0121      0.0081
         8        -0.0011     -0.0025     -0.0002      0.0037      0.0025
         9        -0.0110     -0.0027     -0.0083      0.0220      0.0146
        10        -0.0301     -0.1272     -0.0127      0.1700      0.1133
        11        -0.0003     -0.0005     -0.0004      0.0013      0.0009
        12        -0.1296     -0.0910     -0.0615      0.2821      0.1880
        13        -0.0001     -0.0138     -0.0014      0.0153      0.0102
        14        -0.0122     -0.0002     -0.0009      0.0132      0.0088
        15        -0.0007     -0.0006     -0.0009      0.0021      0.0014
        16        -0.0345     -0.0045     -0.0316      0.0705      0.0470
        17        -0.0893     -0.0364     -0.0022      0.1279      0.0853
        18        -0.4694     -0.0548     -0.0726      0.5969      0.3979
        19        -0.0296     -0.0005     -0.0008      0.0310      0.0206
        20        -0.1679     -0.0060     -0.0080      0.1819      0.1213
        21        -0.0001     -0.0184     -0.0001      0.0187      0.0124
        22        -0.0004     -0.0938     -0.0046      0.0989      0.0659
        23        -0.0065     -0.0563     -0.0199      0.0827      0.0551
        24        -0.0111     -0.0744     -0.0018      0.0874      0.0583
        25        -0.3991     -0.1213     -0.0047      0.5251      0.3501
        26        -0.1586     -0.0065     -0.0006      0.1657      0.1104
        27        -0.0005     -0.0011     -0.0037      0.0053      0.0035
        28        -0.0916     -0.0906     -0.0103      0.1925      0.1283
        29        -0.1924     -0.0082     -0.0004      0.2010      0.1340
        30        -0.0159     -0.0078     -0.0698      0.0935      0.0623
        31        -0.0027     -0.0309     -0.0083      0.0419      0.0279
        32        -0.1282     -0.0003     -0.0283      0.1568      0.1046
        33        -0.0587     -0.0165     -0.0732      0.1484      0.0989
        34        -0.2350     -0.0091     -0.0146      0.2587      0.1725
        35        -0.0711     -0.0817     -0.0065      0.1592      0.1062
        36        -0.0297     -0.0067     -0.0096      0.0461      0.0307
        37        -0.0058     -0.0712     -0.0066      0.0836      0.0557
        38        -0.0853     -0.0139     -0.1609      0.2600      0.1734
        39        -0.0115     -0.0500     -0.1073      0.1687      0.1125
        40        -0.0459     -0.0053     -0.0106      0.0618      0.0412
        41        -0.0188     -0.0337     -0.0802      0.1328      0.0885
        42        -0.2059     -0.0404     -0.1636      0.4099      0.2733
        43        -0.3611     -0.1177     -0.0017      0.4805      0.3203
        44        -0.0116     -0.0085     -0.2133      0.2334      0.1556
        45        -0.0095     -0.0514     -0.1156      0.1764      0.1176
        46        -0.4022     -0.0043     -0.3690      0.7755      0.5170
        47         0.0000     -0.0442     -0.0492      0.0934      0.0622
        48        -0.1722     -0.1791     -0.0172      0.3685      0.2457
        49        -0.0297     -0.0032     -0.0086      0.0414      0.0276
        50        -0.0160     -0.0720     -0.0007      0.0886      0.0591
        51        -0.0310     -0.0465     -0.0384      0.1159      0.0772
        52        -0.0186     -0.0497      0.0000      0.0683      0.0455
        53        -0.0168     -0.0112     -0.0055      0.0335      0.0223
        54        -0.0017     -0.0003     -0.0023      0.0043      0.0028
        55        -0.0269     -0.0144     -0.0104      0.0518      0.0345
        56        -0.0331     -0.0006     -0.0041      0.0378      0.0252
        57        -0.0382     -0.0019      0.0000      0.0401      0.0267
        58        -0.0058     -0.0100     -0.0287      0.0445      0.0297
        59        -0.0113     -0.0003     -0.0235      0.0352      0.0235
        60        -0.0111     -0.0029     -0.0004      0.0145      0.0096

 Excitation energies and oscillator strengths:
 
 Excited State   1:      Singlet-A      3.1470 eV  393.97 nm  f=0.0138  <S**2>=0.000
      95 -> 99        -0.14716
      96 -> 99         0.26169
      98 -> 99         0.62180
 This state for optimization and/or second-order correction.
 Total Energy, E(TD-HF/TD-KS) =  -1190.11227647    
 Copying the excited state density for this state as the 1-particle RhoCI density.
 
 Excited State   2:      Singlet-A      3.6101 eV  343.43 nm  f=0.1209  <S**2>=0.000
      91 -> 99         0.35557
      92 -> 99         0.11779
      94 -> 99         0.13905
      95 -> 99         0.43740
      96 -> 99         0.20359
      97 -> 99        -0.30321
 
 Excited State   3:      Singlet-A      3.6893 eV  336.07 nm  f=0.0668  <S**2>=0.000
      91 -> 99        -0.37276
      94 -> 99        -0.15696
      95 -> 99         0.14418
      96 -> 99         0.50125
      98 -> 99        -0.20395
 
 Excited State   4:      Singlet-A      3.8416 eV  322.75 nm  f=0.1168  <S**2>=0.000
      92 -> 99         0.63961
      93 -> 99         0.17037
      95 -> 99        -0.10130
      97 -> 99         0.11107
 
 Excited State   5:      Singlet-A      3.9388 eV  314.78 nm  f=0.0091  <S**2>=0.000
      91 -> 99         0.23396
      92 -> 99        -0.18464
      93 -> 99         0.53132
      95 -> 99        -0.13554
      96 -> 99         0.14541
      97 -> 99         0.19577
      98 -> 99        -0.13124
 
 Excited State   6:      Singlet-A      4.0224 eV  308.24 nm  f=0.0059  <S**2>=0.000
      93 -> 99        -0.10847
      94 -> 99         0.56908
      95 -> 99        -0.26789
      96 -> 99         0.15761
      97 -> 99        -0.14926
      98 -> 99        -0.11003
 
 Excited State   7:      Singlet-A      4.3687 eV  283.80 nm  f=0.0083  <S**2>=0.000
      90 -> 99         0.13923
      91 -> 99         0.24134
      92 ->100         0.32326
      93 -> 99        -0.28644
      96 -> 99         0.20125
      97 -> 99         0.33445
      98 -> 99        -0.10558
 
 Excited State   8:      Singlet-A      4.3854 eV  282.72 nm  f=0.0024  <S**2>=0.000
      90 -> 99         0.17144
      92 ->100        -0.31830
      94 -> 99         0.19601
      95 -> 99         0.30257
      97 -> 99         0.41714
 
 Excited State   9:      Singlet-A      4.3942 eV  282.16 nm  f=0.0144  <S**2>=0.000
      91 -> 99        -0.26244
      92 ->100         0.41412
      92 ->107        -0.10930
      93 -> 99         0.22311
      94 -> 99         0.21404
      95 -> 99         0.24211
      96 -> 99        -0.17368
      98 -> 99         0.10894
 
 Excited State  10:      Singlet-A      4.6436 eV  267.00 nm  f=0.1123  <S**2>=0.000
      91 -> 99        -0.10491
      92 ->100        -0.12179
      93 ->102         0.10873
      94 ->100        -0.41175
      96 ->100         0.12197
      97 ->100         0.16931
      98 ->100         0.42683
 
 Excited State  11:      Singlet-A      4.6851 eV  264.64 nm  f=0.0008  <S**2>=0.000
      87 -> 99         0.14984
      90 -> 99         0.59673
      93 -> 99         0.12713
      94 -> 99        -0.16168
      97 -> 99        -0.16436
 
 Excited State  12:      Singlet-A      5.1417 eV  241.14 nm  f=0.1926  <S**2>=0.000
      92 ->100        -0.11826
      93 ->100         0.43354
      94 ->100         0.32391
      95 ->100        -0.19422
      96 ->100         0.26339
 
 Excited State  13:      Singlet-A      5.3554 eV  231.51 nm  f=0.0101  <S**2>=0.000
      79 -> 99         0.47031
      82 -> 99         0.10131
      83 -> 99        -0.12582
      85 -> 99         0.10607
      86 -> 99         0.14041
      87 -> 99         0.19774
      90 -> 99        -0.13789
      98 ->101        -0.13776
      98 ->104         0.14637
 
 Excited State  14:      Singlet-A      5.3800 eV  230.46 nm  f=0.0090  <S**2>=0.000
      79 -> 99         0.27433
      87 -> 99         0.11704
      95 ->100        -0.10849
      95 ->102         0.15853
      95 ->106         0.19213
      96 ->101         0.11793
      96 ->102         0.11711
      96 ->104        -0.11197
      96 ->105         0.12919
      96 ->106         0.11104
      97 ->102        -0.15793
      97 ->103         0.10493
      98 ->101         0.15760
      98 ->103         0.14148
      98 ->104        -0.26051
 
 Excited State  15:      Singlet-A      5.4264 eV  228.48 nm  f=0.0015  <S**2>=0.000
      94 ->100         0.11100
      95 ->102         0.14485
      95 ->103        -0.22189
      96 ->100        -0.19084
      96 ->101         0.10918
      96 ->102         0.12084
      96 ->104        -0.19587
      96 ->105        -0.11138
      97 ->102         0.13705
      97 ->103        -0.17867
      97 ->105        -0.10430
      97 ->106        -0.22560
      98 ->100         0.15365
      98 ->102        -0.15482
      98 ->105         0.26416
 
 Excited State  16:      Singlet-A      5.6170 eV  220.73 nm  f=0.0487  <S**2>=0.000
      77 -> 99         0.28441
      81 -> 99        -0.14449
      82 -> 99         0.21845
      83 -> 99         0.35693
      84 -> 99        -0.17245
      86 -> 99        -0.10577
      87 -> 99         0.21250
      88 -> 99         0.15604
 
 Excited State  17:      Singlet-A      5.6337 eV  220.08 nm  f=0.0872  <S**2>=0.000
      94 ->100         0.16343
      95 ->100         0.12217
      96 ->100        -0.25645
      96 ->105         0.10267
      97 ->100        -0.15894
      97 ->101        -0.10867
      97 ->102        -0.12317
      97 ->103         0.10642
      97 ->106         0.11948
      98 ->100         0.37327
      98 ->101        -0.18834
      98 ->102        -0.14173
      98 ->105        -0.10837
 
 Excited State  18:      Singlet-A      5.7370 eV  216.11 nm  f=0.4002  <S**2>=0.000
      91 ->100         0.10590
      93 ->100         0.23691
      94 ->100         0.10896
      95 ->100         0.13324
      96 ->100        -0.13412
      97 ->100        -0.18847
      98 ->100         0.11075
      98 ->101         0.37188
      98 ->102         0.27033
      98 ->103        -0.11842
 
 Excited State  19:      Singlet-A      5.8246 eV  212.86 nm  f=0.0211  <S**2>=0.000
      94 ->100         0.14921
      95 ->100         0.32580
      96 ->100        -0.12265
      97 ->100         0.54962
 
 Excited State  20:      Singlet-A      5.8983 eV  210.20 nm  f=0.1236  <S**2>=0.000
      77 -> 99         0.19349
      79 -> 99        -0.19660
      84 -> 99         0.13664
      85 -> 99        -0.10060
      86 -> 99         0.14083
      88 -> 99         0.20668
[...]
    17  C   -0.072583  -0.045700  -0.001025   0.000002  -0.000196   0.017577
    18  C    0.009184  -0.000330   0.000050   0.000002  -0.000003  -0.000486
    19  C   -0.000011   0.000139   0.000002   0.000000   0.000000  -0.000009
    20  C   -0.000065  -0.000451  -0.000008   0.000000   0.000000   0.000001
    21  C    0.000470   0.012656   0.000045  -0.000008   0.000001  -0.000022
    22  C    0.270547  -0.044724   0.009435  -0.001170   0.010343  -0.093544
    23  O   -0.096168   0.003737  -0.000058  -0.000005   0.000969   0.013408
    24  H   -0.003405  -0.000747  -0.000115   0.000003   0.000012   0.000212
    25  C    5.359204   0.371644  -0.018608  -0.077116  -0.003792   0.428071
    26  C    0.371644   5.107463   0.476787   0.002781  -0.075981  -0.037189
    27  C   -0.018608   0.476787   4.845129   0.463468  -0.001308  -0.074653
    28  C   -0.077116   0.002781   0.463468   4.770104   0.466510   0.004153
    29  C   -0.003792  -0.075981  -0.001308   0.466510   4.781210   0.472556
    30  C    0.428071  -0.037189  -0.074653   0.004153   0.472556   4.839488
    31  H    0.000009   0.000140  -0.000361   0.000008   0.000001   0.000000
    32  H    0.000000  -0.000003   0.000003   0.000002   0.000000   0.000000
    33  H    0.000000   0.000000   0.000003  -0.000001   0.000000   0.000000
    34  H    0.000003  -0.000004   0.000030   0.000014   0.000004   0.000002
    35  H   -0.000456   0.000343  -0.000749   0.000041  -0.000043   0.000222
    36  H   -0.000013  -0.000026   0.000004   0.000000   0.000000  -0.000002
    37  H    0.000000   0.000000   0.000000   0.000000   0.000000   0.000000
    38  H    0.000000   0.000000   0.000000   0.000000   0.000000   0.000000
    39  H    0.000000   0.000000   0.000000   0.000000   0.000000   0.000000
    40  H   -0.000003  -0.000131   0.000006   0.000000   0.000000   0.000000
    41  H    0.001842  -0.000071   0.000000   0.000000  -0.000001  -0.000054
    42  H    0.000003   0.000001   0.000000   0.000000   0.000000   0.000000
    43  H    0.000000   0.000001   0.000000   0.000000   0.000000   0.000000
    44  H   -0.000013   0.001431   0.000053  -0.000001   0.000000  -0.000001
    45  H    0.012130  -0.044644   0.412335  -0.042696   0.008773  -0.000951
    46  H    0.000196   0.008140  -0.036713   0.409619  -0.044478   0.007958
    47  H    0.008248   0.000158   0.007797  -0.043191   0.410510  -0.038320
    48  H   -0.041857   0.012032  -0.000909   0.008473  -0.041965   0.410192
              31         32         33         34         35         36
     1  O    0.003959   0.000001   0.000000   0.000001   0.000034   0.000068
     2  C    0.000318   0.000004   0.000001  -0.000001   0.000413   0.000822
     3  C   -0.014440  -0.000335   0.000018  -0.000296  -0.009736  -0.013545
     4  C   -0.047166   0.008195  -0.000529   0.008446  -0.053143  -0.000344
     5  C    0.412759  -0.040486   0.008581  -0.000121   0.009414   0.000132
     6  C   -0.040486   0.408148  -0.043522   0.007922  -0.000890  -0.000024
     7  C    0.008830  -0.044196   0.410251  -0.044837   0.008908  -0.000002
     8  C   -0.001055   0.007948  -0.042976   0.406009  -0.037978   0.000683
     9  C    0.010228  -0.000069   0.008725  -0.037159   0.413209   0.005595
    10  C   -0.000390  -0.000002   0.000000   0.000003  -0.002547  -0.048035
    11  C    0.000001   0.000001   0.000000   0.000010   0.000266   0.406556
    12  C    0.000000   0.000000   0.000000   0.000000   0.000232  -0.037084
    13  C   -0.000002   0.000000   0.000000   0.000000  -0.000002   0.008999
    14  C    0.000017   0.000000   0.000000   0.000000   0.000003  -0.001088
    15  C    0.001028  -0.000001   0.000000   0.000000  -0.000154   0.010066
    16  C   -0.000059   0.000000   0.000000   0.000000  -0.000565  -0.000269
    17  C   -0.000001   0.000000   0.000000   0.000000   0.000304  -0.000064
    18  C    0.000000   0.000000   0.000000   0.000000   0.000016   0.000034
    19  C    0.000000   0.000000   0.000000   0.000000   0.000000   0.000003
    20  C    0.000000   0.000000   0.000000   0.000000   0.000000   0.000004
    21  C   -0.000002   0.000000   0.000000   0.000000  -0.000018   0.000040
    22  C    0.000000   0.000000   0.000000   0.000000  -0.000309  -0.000001
    23  O    0.000000   0.000000   0.000000   0.000000  -0.000020   0.000001
    24  H    0.000000   0.000000   0.000000   0.000000   0.000086   0.001531
    25  C    0.000009   0.000000   0.000000   0.000003  -0.000456  -0.000013
    26  C    0.000140  -0.000003   0.000000  -0.000004   0.000343  -0.000026
    27  C   -0.000361   0.000003   0.000003   0.000030  -0.000749   0.000004
    28  C    0.000008   0.000002  -0.000001   0.000014   0.000041   0.000000
    29  C    0.000001   0.000000   0.000000   0.000004  -0.000043   0.000000
    30  C    0.000000   0.000000   0.000000   0.000002   0.000222  -0.000002
    31  H    0.661579  -0.011632  -0.000153   0.000040  -0.000077  -0.000025
    32  H   -0.011632   0.655030  -0.011836  -0.000168   0.000043   0.000000
    33  H   -0.000153  -0.011836   0.655583  -0.011806  -0.000166   0.000000
    34  H    0.000040  -0.000168  -0.011806   0.655552  -0.012244  -0.000001
    35  H   -0.000077   0.000043  -0.000166  -0.012244   0.665068   0.000872
    36  H   -0.000025   0.000000   0.000000  -0.000001   0.000872   0.662597
    37  H    0.000000   0.000000   0.000000   0.000000   0.000004  -0.012460
    38  H    0.000000   0.000000   0.000000   0.000000   0.000000  -0.000164
    39  H   -0.000001   0.000000   0.000000   0.000000   0.000000   0.000043
    40  H    0.000280   0.000000   0.000000   0.000000  -0.000002  -0.000056
    41  H    0.000000   0.000000   0.000000   0.000000   0.000000  -0.000001
    42  H    0.000000   0.000000   0.000000   0.000000   0.000000   0.000000
    43  H    0.000000   0.000000   0.000000   0.000000   0.000000   0.000000
    44  H   -0.000006   0.000000   0.000000   0.000000  -0.000001   0.000001
    45  H    0.000825   0.000005  -0.000001   0.000002   0.000008   0.000000
    46  H   -0.000002   0.000000   0.000000   0.000000   0.000003   0.000000
    47  H    0.000000   0.000000   0.000000   0.000000   0.000001   0.000000
    48  H    0.000000   0.000000   0.000000   0.000000   0.000003   0.000000
              37         38         39         40         41         42
     1  O    0.000001   0.000000   0.000001   0.009248   0.000000   0.000000
     2  C    0.000002   0.000001   0.000002   0.000137  -0.000217   0.000005
     3  C   -0.000280   0.000018  -0.000300  -0.018219   0.000000   0.000000
     4  C    0.000007   0.000000   0.000002   0.000288   0.000000   0.000000
     5  C    0.000001   0.000000   0.000000   0.000375   0.000000   0.000000
     6  C    0.000000   0.000000   0.000000   0.000010   0.000000   0.000000
     7  C    0.000000   0.000000   0.000000   0.000000   0.000000   0.000000
     8  C    0.000000   0.000000   0.000000   0.000001   0.000000   0.000000
     9  C   -0.000009   0.000000   0.000000  -0.000064   0.000000   0.000000
    10  C    0.008516  -0.000526   0.008154  -0.043743  -0.000003   0.000001
    11  C   -0.036910   0.008801  -0.000041   0.010027  -0.000004   0.000000
    12  C    0.406449  -0.043102   0.007909  -0.001080  -0.000001   0.000000
    13  C   -0.045067   0.410507  -0.044326   0.008674   0.000000   0.000000
    14  C    0.008022  -0.043392   0.407913  -0.041342   0.000000   0.000000
    15  C   -0.000185   0.008538  -0.039502   0.412412   0.000000   0.000000
    16  C    0.000000   0.000000   0.000001  -0.001627   0.005876  -0.001144
    17  C    0.000003   0.000000   0.000000  -0.000090  -0.040212   0.007859
    18  C    0.000000   0.000000   0.000000   0.000008   0.401742  -0.040419
    19  C    0.000000   0.000000   0.000001  -0.000008  -0.024548   0.418951
    20  C    0.000001   0.000000   0.000005   0.000372   0.006487  -0.038853
    21  C    0.000001   0.000000   0.000017   0.000521  -0.000114   0.007937
    22  C    0.000000   0.000000   0.000000   0.000000  -0.006195  -0.000069
    23  O    0.000000   0.000000   0.000000   0.000000   0.014964  -0.000004
    24  H   -0.000007   0.000000   0.000000  -0.000003  -0.001387  -0.000144
    25  C    0.000000   0.000000   0.000000  -0.000003   0.001842   0.000003
    26  C    0.000000   0.000000   0.000000  -0.000131  -0.000071   0.000001
    27  C    0.000000   0.000000   0.000000   0.000006   0.000000   0.000000
    28  C    0.000000   0.000000   0.000000   0.000000   0.000000   0.000000
    29  C    0.000000   0.000000   0.000000   0.000000  -0.000001   0.000000
    30  C    0.000000   0.000000   0.000000   0.000000  -0.000054   0.000000
    31  H    0.000000   0.000000  -0.000001   0.000280   0.000000   0.000000
    32  H    0.000000   0.000000   0.000000   0.000000   0.000000   0.000000
    33  H    0.000000   0.000000   0.000000   0.000000   0.000000   0.000000
    34  H    0.000000   0.000000   0.000000   0.000000   0.000000   0.000000
    35  H    0.000004   0.000000   0.000000  -0.000002   0.000000   0.000000
    36  H   -0.012460  -0.000164   0.000043  -0.000056  -0.000001   0.000000
    37  H    0.654736  -0.011745  -0.000168   0.000039   0.000000   0.000000
    38  H   -0.011745   0.654857  -0.011794  -0.000149   0.000000   0.000000
    39  H   -0.000168  -0.011794   0.654061  -0.011522   0.000000   0.000000
    40  H    0.000039  -0.000149  -0.011522   0.654541   0.000000   0.000000
    41  H    0.000000   0.000000   0.000000   0.000000   0.565004  -0.009517
    42  H    0.000000   0.000000   0.000000   0.000000  -0.009517   0.593174
    43  H    0.000000   0.000000  -0.000001   0.000020  -0.000101  -0.010424
    44  H    0.000000   0.000000   0.000018   0.000539   0.000025  -0.000024
    45  H    0.000000   0.000000   0.000000  -0.000002   0.000000   0.000000
    46  H    0.000000   0.000000   0.000000   0.000000   0.000000   0.000000
    47  H    0.000000   0.000000   0.000000   0.000000   0.000000   0.000000
    48  H    0.000000   0.000000   0.000000   0.000000  -0.000015   0.000000
              43         44         45         46         47         48
     1  O    0.000004   0.008884   0.012820   0.000000   0.000000   0.000001
     2  C   -0.000235  -0.014668  -0.018046  -0.000301   0.000025  -0.000033
     3  C    0.000001  -0.001112  -0.003720   0.000012   0.000000   0.000004
     4  C    0.000000  -0.000067   0.001340  -0.000016   0.000000   0.000000
     5  C    0.000000   0.000005   0.001780  -0.000008   0.000000   0.000000
     6  C    0.000000   0.000000   0.000351   0.000007   0.000000   0.000000
     7  C    0.000000   0.000000  -0.000014   0.000015   0.000000   0.000000
     8  C    0.000000   0.000000  -0.000105   0.000017  -0.000001   0.000000
     9  C    0.000000  -0.000003  -0.000576   0.000025   0.000000   0.000003
    10  C    0.000008  -0.002007   0.000048   0.000000   0.000000   0.000000
    11  C   -0.000001  -0.000090  -0.000017   0.000000   0.000000   0.000000
    12  C   -0.000001  -0.000015   0.000000   0.000000   0.000000   0.000000
    13  C    0.000004   0.000020   0.000000   0.000000   0.000000   0.000000
    14  C    0.000029   0.000484   0.000000   0.000000   0.000000   0.000000
    15  C    0.000005   0.003480   0.000022   0.000000   0.000000   0.000000
    16  C    0.007448  -0.040763   0.001105   0.000002   0.000000  -0.000094
    17  C   -0.000241   0.008357  -0.000013   0.000001   0.000002   0.001830
    18  C    0.007671  -0.001278   0.000000   0.000000   0.000000  -0.000051
    19  C   -0.038505   0.007714   0.000000   0.000000   0.000000  -0.000002
    20  C    0.409080  -0.037650   0.000000   0.000000   0.000000   0.000000
    21  C   -0.034281   0.418872   0.000059   0.000000   0.000000   0.000001
    22  C    0.000015  -0.000109  -0.000068   0.000024  -0.000262  -0.022423
    23  O    0.000000   0.000001   0.000001   0.000000  -0.000004   0.015992
    24  H    0.000041  -0.000141  -0.000005   0.000000   0.000000   0.000002
    25  C    0.000000  -0.000013   0.012130   0.000196   0.008248  -0.041857
    26  C    0.000001   0.001431  -0.044644   0.008140   0.000158   0.012032
    27  C    0.000000   0.000053   0.412335  -0.036713   0.007797  -0.000909
    28  C    0.000000  -0.000001  -0.042696   0.409619  -0.043191   0.008473
    29  C    0.000000   0.000000   0.008773  -0.044478   0.410510  -0.041965
    30  C    0.000000  -0.000001  -0.000951   0.007958  -0.038320   0.410192
    31  H    0.000000  -0.000006   0.000825  -0.000002   0.000000   0.000000
    32  H    0.000000   0.000000   0.000005   0.000000   0.000000   0.000000
    33  H    0.000000   0.000000  -0.000001   0.000000   0.000000   0.000000
    34  H    0.000000   0.000000   0.000002   0.000000   0.000000   0.000000
    35  H    0.000000  -0.000001   0.000008   0.000003   0.000001   0.000003
    36  H    0.000000   0.000001   0.000000   0.000000   0.000000   0.000000
    37  H    0.000000   0.000000   0.000000   0.000000   0.000000   0.000000
    38  H    0.000000   0.000000   0.000000   0.000000   0.000000   0.000000
    39  H   -0.000001   0.000018   0.000000   0.000000   0.000000   0.000000
    40  H    0.000020   0.000539  -0.000002   0.000000   0.000000   0.000000
    41  H   -0.000101   0.000025   0.000000   0.000000   0.000000  -0.000015
    42  H   -0.010424  -0.000024   0.000000   0.000000   0.000000   0.000000
    43  H    0.573988  -0.010058   0.000000   0.000000   0.000000   0.000000
    44  H   -0.010058   0.602286   0.000030   0.000000   0.000000   0.000000
    45  H    0.000000   0.000030   0.651730  -0.011556  -0.000136   0.000028
    46  H    0.000000   0.000000  -0.011556   0.635256  -0.011269  -0.000137
    47  H    0.000000   0.000000  -0.000136  -0.011269   0.637097  -0.010807
    48  H    0.000000   0.000000   0.000028  -0.000137  -0.010807   0.645219
 Mulliken charges:
               1
     1  O   -0.247829
     2  C    0.100973
     3  C    0.047483
     4  C   -0.026130
     5  C    0.014432
     6  C   -0.003479
     7  C   -0.008827
     8  C    0.000557
     9  C   -0.005096
    10  C   -0.010486
    11  C   -0.016791
    12  C    0.003320
    13  C   -0.006440
    14  C    0.002474
    15  C   -0.003158
    16  C    0.002142
    17  C   -0.079718
    18  C    0.104934
    19  C    0.044421
    20  C    0.107677
    21  C    0.054565
    22  C    0.146543
    23  O   -0.191749
    24  H    0.205066
    25  C   -0.043642
    26  C    0.026759
    27  C    0.011057
    28  C    0.031148
    29  C    0.017874
    30  C    0.040732
    31  H    0.015837
    32  H    0.029349
    33  H    0.027829
    34  H    0.028597
    35  H    0.019610
    36  H    0.015155
    37  H    0.029052
    38  H    0.028151
    39  H    0.029531
    40  H    0.020545
    41  H    0.086498
    42  H    0.072665
    43  H    0.095534
    44  H    0.055808
    45  H    0.019160
    46  H    0.043206
    47  H    0.040148
    48  H    0.024514
 Sum of Mulliken charges =   1.00000
 Mulliken charges with hydrogens summed into heavy atoms:
               1
     1  O   -0.247829
     2  C    0.100973
     3  C    0.047483
     4  C   -0.026130
     5  C    0.030269
     6  C    0.025869
     7  C    0.019003
     8  C    0.029154
     9  C    0.014514
    10  C   -0.010486
    11  C   -0.001636
    12  C    0.032371
    13  C    0.021711
    14  C    0.032005
    15  C    0.017387
    16  C    0.002142
    17  C    0.125348
    18  C    0.191432
    19  C    0.117085
    20  C    0.203211
    21  C    0.110373
    22  C    0.146543
    23  O   -0.191749
    25  C   -0.043642
    26  C    0.026759
    27  C    0.030216
    28  C    0.074354
    29  C    0.058023
    30  C    0.065246
 Electronic spatial extent (au):  <R**2>=           9014.4210
 Charge=              1.0000 electrons
 Dipole moment (field-independent basis, Debye):
    X=              6.9755    Y=             -5.1572    Z=             -0.8793  Tot=              8.7194
 Quadrupole moment (field-independent basis, Debye-Ang):
   XX=            -97.4722   YY=           -142.1890   ZZ=           -148.6993
   XY=            -14.4247   XZ=             -3.8079   YZ=              1.4243
 Traceless Quadrupole moment (field-independent basis, Debye-Ang):
   XX=             31.9813   YY=            -12.7355   ZZ=            -19.2458
   XY=            -14.4247   XZ=             -3.8079   YZ=              1.4243
 Octapole moment (field-independent basis, Debye-Ang**2):
  XXX=             78.8146  YYY=            -35.9289  ZZZ=              2.9170  XYY=             29.0742
  XXY=            -63.0773  XXZ=            -27.5538  XZZ=             25.2354  YZZ=             13.3135
  YYZ=            -19.2912  XYZ=              5.3934
 Hexadecapole moment (field-independent basis, Debye-Ang**3):
 XXXX=          -4745.7852 YYYY=          -5113.2670 ZZZZ=          -1221.6225 XXXY=           -153.8991
 XXXZ=            -88.1722 YYYX=           -137.2063 YYYZ=            -76.8372 ZZZX=            -26.3860
 ZZZY=             -2.5891 XXYY=          -1251.1854 XXZZ=          -1007.5020 YYZZ=          -1062.8567
 XXYZ=             46.2930 YYXZ=             17.6653 ZZXY=            -28.3935
 N-N= 2.662203900896D+03 E-N=-8.064123171106D+03  KE= 1.182387007933D+03
 1|1|UNPC-CHSHR-P01|SP|RwB97XD TD-FC|CC-pVDZ|C27H19O2(1+)|IBS|26-Jun-20
 24|0||# td=(nstates=60) wb97xd/cc-pvdz scrf=(cpcm,solvent=n,n-DiMethyl
 Formamide) geom=AllCheck guess=read maxdisk=900GB integral(ultrafinegr
 id)||OS9plus_conf1_s||1,1|O,0,1.0742163692,0.2461569226,-0.924691125|C
 ,0,2.1818757811,0.4565617947,-0.0772276904|C,0,2.2449986795,0.76030630
 52,-1.5569646323|C,0,2.1733371832,2.1894361469,-2.0087608985|C,0,1.076
 3953622,2.6044447195,-2.7670434689|C,0,0.9996880753,3.9210868291,-3.21
 67712763|C,0,2.0193222107,4.824371327,-2.9139452514|C,0,3.1156067062,4
 .4093005339,-2.1577841659|C,0,3.1932288174,3.093986142,-1.7035726642|C
 ,0,2.9460751762,-0.1961255105,-2.480952565|C,0,4.2906610475,0.00318749
 71,-2.8124692684|C,0,4.9418906755,-0.8960366195,-3.6536997201|C,0,4.25
 1986802,-1.9885222369,-4.1816011174|C,0,2.9078912519,-2.1785553452,-3.
 8644410944|C,0,2.2558504438,-1.2873779439,-3.0127812846|C,0,2.89033961
 7,-0.7437502056,0.4097419815|C,0,4.1792866968,-0.5030502748,1.07120055
 19|C,0,4.8746045764,-1.6742691659,1.614056859|C,0,4.3878959044,-2.9336
 008537,1.4188818634|C,0,3.1587343001,-3.0978951058,0.7436631458|C,0,2.
 4112079348,-2.0210032601,0.2484562992|C,0,4.2154373488,0.7423820636,2.
 0291223761|O,0,5.1399015397,0.859930793,2.7911264028|H,0,4.8499701608,
 -0.1423380224,0.250236334|C,0,3.0900665918,1.6945149196,1.9155196673|C
 ,0,2.0902909268,1.5523043692,0.9396738065|C,0,1.0234549225,2.449167315
 8,0.9144112963|C,0,0.9682755224,3.4917420969,1.8353451868|C,0,1.975862
 8359,3.6530257159,2.7892623986|C,0,3.0323655827,2.7539588551,2.8311049
 611|H,0,0.2781984367,1.896232356,-2.9971064707|H,0,0.1390190461,4.2433
 474054,-3.8050629144|H,0,1.9572240829,5.8558109531,-3.2648003294|H,0,3
 .9110180394,5.1143610428,-1.911669965|H,0,4.0412921163,2.7800328908,-1
 .0911551756|H,0,4.8349681552,0.8628129562,-2.4166576101|H,0,5.99333712
 75,-0.7403406334,-3.8998448241|H,0,4.7631728575,-2.6901476673,-4.84270
 83227|H,0,2.3613578095,-3.0272196118,-4.278827256|H,0,1.2062503731,-1.
 4369818934,-2.756814315|H,0,5.7968840558,-1.4932320857,2.1673919576|H,
 0,4.9183893527,-3.8047220233,1.7994973042|H,0,2.7640104916,-4.10763678
 58,0.614535831|H,0,1.4583241667,-2.1898275661,-0.2490036467|H,0,0.2405
 849455,2.326919007,0.1672343597|H,0,0.1283714497,4.1871695461,1.807109
 0231|H,0,1.9299965485,4.4755269754,3.5033546167|H,0,3.824181903,2.8481
 55331,3.57423083||Version=EM64W-G09RevD.01|State=1-A|HF=-1190.2279275|
 RMSD=2.979e-009|PG=C01 [X(C27H19O2)]||@


 The mind is not a vessel to be filled but a fire to be kindled.
                                  -- Plutarch
 Job cpu time:       0 days  2 hours  7 minutes 45.0 seconds.
 File lengths (MBytes):  RWF=   3839 Int=      0 D2E=      0 Chk=    523 Scr=      1
 Normal termination of Gaussian 09 at Wed Jun 26 08:18:24 2024.
