 Entering Gaussian System, Link 0=g16
 Input=rafrad_uv.gjf
 Output=rafrad_uv.log
 Initial command:
 /home/yaroslav/g16here/g16/l1.exe "/home/yaroslav/g16here/scratch/Gau-9031.inp" -scrdir="/home/yaroslav/g16here/scratch/"
 Entering Link 1 = /home/yaroslav/g16here/g16/l1.exe PID=      9032.
  
 Copyright (c) 1988-2019, Gaussian, Inc.  All Rights Reserved.
  
 This is part of the Gaussian(R) 16 program.  It is based on
 the Gaussian(R) 09 system (copyright 2009, Gaussian, Inc.),
 the Gaussian(R) 03 system (copyright 2003, Gaussian, Inc.),
 the Gaussian(R) 98 system (copyright 1998, Gaussian, Inc.),
 the Gaussian(R) 94 system (copyright 1995, Gaussian, Inc.),
 the Gaussian 92(TM) system (copyright 1992, Gaussian, Inc.),
 the Gaussian 90(TM) system (copyright 1990, Gaussian, Inc.),
 the Gaussian 88(TM) system (copyright 1988, Gaussian, Inc.),
 the Gaussian 86(TM) system (copyright 1986, Carnegie Mellon
 University), and the Gaussian 82(TM) system (copyright 1983,
 Carnegie Mellon University). Gaussian is a federally registered
 trademark of Gaussian, Inc.
  
 This software contains proprietary and confidential information,
 including trade secrets, belonging to Gaussian, Inc.
  
 This software is provided under written license and may be
 used, copied, transmitted, or stored only in accord with that
 written license.
  
 The following legend is applicable only to US Government
 contracts under FAR:
  
                    RESTRICTED RIGHTS LEGEND
  
 Use, reproduction and disclosure by the US Government is
 subject to restrictions as set forth in subparagraphs (a)
 and (c) of the Commercial Computer Software - Restricted
 Rights clause in FAR 52.227-19.
  
 Gaussian, Inc.
 340 Quinnipiac St., Bldg. 40, Wallingford CT 06492
  
  
 ---------------------------------------------------------------
 Warning -- This program may not be used in any manner that
 competes with the business of Gaussian, Inc. or will provide
 assistance to any competitor of Gaussian, Inc.  The licensee
 of this program is prohibited from giving any competitor of
 Gaussian, Inc. access to this program.  By using this program,
 the user acknowledges that Gaussian, Inc. is engaged in the
 business of creating and licensing software in the field of
 computational chemistry and represents and warrants to the
 licensee that it is not a competitor of Gaussian, Inc. and that
 it will not use this program in any manner prohibited above.
 ---------------------------------------------------------------
  

 Cite this work as:
 Gaussian 16, Revision C.01,
 M. J. Frisch, G. W. Trucks, H. B. Schlegel, G. E. Scuseria, 
 M. A. Robb, J. R. Cheeseman, G. Scalmani, V. Barone, 
 G. A. Petersson, H. Nakatsuji, X. Li, M. Caricato, A. V. Marenich, 
 J. Bloino, B. G. Janesko, R. Gomperts, B. Mennucci, H. P. Hratchian, 
 J. V. Ortiz, A. F. Izmaylov, J. L. Sonnenberg, D. Williams-Young, 
 F. Ding, F. Lipparini, F. Egidi, J. Goings, B. Peng, A. Petrone, 
 T. Henderson, D. Ranasinghe, V. G. Zakrzewski, J. Gao, N. Rega, 
 G. Zheng, W. Liang, M. Hada, M. Ehara, K. Toyota, R. Fukuda, 
 J. Hasegawa, M. Ishida, T. Nakajima, Y. Honda, O. Kitao, H. Nakai, 
 T. Vreven, K. Throssell, J. A. Montgomery, Jr., J. E. Peralta, 
 F. Ogliaro, M. J. Bearpark, J. J. Heyd, E. N. Brothers, K. N. Kudin, 
 V. N. Staroverov, T. A. Keith, R. Kobayashi, J. Normand, 
 K. Raghavachari, A. P. Rendell, J. C. Burant, S. S. Iyengar, 
 J. Tomasi, M. Cossi, J. M. Millam, M. Klene, C. Adamo, R. Cammi, 
 J. W. Ochterski, R. L. Martin, K. Morokuma, O. Farkas, 
 J. B. Foresman, and D. J. Fox, Gaussian, Inc., Wallingford CT, 2019.
 
 ******************************************
 Gaussian 16:  ES64L-G16RevC.01  3-Jul-2019
                15-May-2025 
 ******************************************
 %Mem=110GB
 %CPU=0,1,2,3,4,5,6,7,8,9,10,11,12,13,14,15,16,17,18,19,20,21,22,23,24,25,26,27
 SetSPE:  set environment variable "MP_BIND" = "yes"
 SetSPE:  set environment variable "MP_BLIST" = "0,1,2,3,4,5,6,7,8,9,10,11,12,13,14,15,16,17,18,19,20,21,22,23,24,25,26,27"
 Will use up to   28 processors via shared memory.
 %Chk=rafrad_opt.chk
 ----------------------------------------------------------------------
 # td=(nstates=60) wb97xd/Def2TZVP scrf=(cpcm,solvent=n,n-DiMethylForma
 mide) geom=AllCheck guess=read maxdisk=900GB integral(ultrafinegrid)
 ----------------------------------------------------------------------
 1/29=7,38=1,172=1/1;
 2/12=2,40=1/2;
 3/5=44,7=101,11=9,14=-4,25=1,30=1,70=2101,72=148,74=-58,75=-5,116=-2/1,2,3,8;
 4/5=1/1;
 5/5=2,38=6,53=148/2;
 8/6=1,10=1,108=60/1;
 9/41=60,42=1,70=2/14;
 6/7=2,8=2,9=2,10=2/1;
 99/5=1,9=1/99;
 Structure from the checkpoint file:  "rafrad_opt.chk"
 ---------
 rafradopt
 ---------
 Charge =  0 Multiplicity = 2
 Redundant internal coordinates found in file.  (old form).
 O,0,-0.047011397,-2.2769530518,0.0625789727
 C,0,-0.0031860904,-0.9188754121,0.0387041052
 C,0,-1.2870750084,-0.2800571923,-0.0113918586
 C,0,-2.4427879189,-0.9900409956,0.3722595675
 C,0,-3.6914470736,-0.401013086,0.3133950183
 C,0,-3.8373890244,0.9065583901,-0.1357053809
 C,0,-2.7105506868,1.6151377077,-0.5385781662
 C,0,-1.4574389276,1.0362969058,-0.4845295931
 C,0,1.2910461042,-0.2766725604,0.0271181201
 C,0,2.4106380325,-0.9446800892,-0.5019036231
 C,0,3.6645841313,-0.36009714,-0.4839847508
 C,0,3.8447818217,0.9035143873,0.0617161616
 C,0,2.7516241442,1.5742152367,0.599182042
 C,0,1.4965654753,0.9969297975,0.5877466417
 H,0,0.7869381933,-2.6295133753,0.3864505576
 H,0,-2.3428633287,-2.0056367141,0.7290747496
 H,0,-4.5615625291,-0.9661173084,0.6242179585
 H,0,-4.8169395498,1.3647018135,-0.1800664235
 H,0,-2.8122785948,2.6265993066,-0.9119170186
 H,0,-0.6029996718,1.5952838773,-0.8403339146
 H,0,2.2933662374,-1.9163582991,-0.9662938672
 H,0,4.5059501359,-0.892419612,-0.909585248
 H,0,4.8261666402,1.3594696779,0.0736682948
 H,0,2.8826470122,2.5520434593,1.0454593266
 H,0,0.6690088729,1.5189292767,1.0482673282
 Recover connectivity data from disk.
                           ----------------------------
                           !    Current Parameters    !
                           ! (Angstroms and Degrees)  !
 --------------------------                            --------------------------
 ! Name  Definition              Value                                          !
 --------------------------------------------------------------------------------
 ! R1    R(1,2)                  1.359                                          !
 ! R2    R(1,15)                 0.9616                                         !
 ! R3    R(2,3)                  1.4349                                         !
 ! R4    R(2,9)                  1.4449                                         !
 ! R5    R(3,4)                  1.4096                                         !
 ! R6    R(3,8)                  1.4091                                         !
 ! R7    R(4,5)                  1.3819                                         !
 ! R8    R(4,16)                 1.0811                                         !
 ! R9    R(5,6)                  1.3902                                         !
 ! R10   R(5,17)                 1.0831                                         !
 ! R11   R(6,7)                  1.3907                                         !
 ! R12   R(6,18)                 1.0823                                         !
 ! R13   R(7,8)                  1.3814                                         !
 ! R14   R(7,19)                 1.083                                          !
 ! R15   R(8,20)                 1.0813                                         !
 ! R16   R(9,10)                 1.407                                          !
 ! R17   R(9,14)                 1.4066                                         !
 ! R18   R(10,11)                1.3836                                         !
 ! R19   R(10,21)                1.0833                                         !
 ! R20   R(11,12)                1.3882                                         !
 ! R21   R(11,22)                1.0828                                         !
 ! R22   R(12,13)                1.3906                                         !
 ! R23   R(12,23)                1.0822                                         !
 ! R24   R(13,14)                1.3815                                         !
 ! R25   R(13,24)                1.0828                                         !
 ! R26   R(14,25)                1.0814                                         !
 ! A1    A(2,1,15)             110.1417                                         !
 ! A2    A(1,2,3)              114.6236                                         !
 ! A3    A(1,2,9)              118.2425                                         !
 ! A4    A(3,2,9)              127.1079                                         !
 ! A5    A(2,3,4)              119.9909                                         !
 ! A6    A(2,3,8)              122.3969                                         !
 ! A7    A(4,3,8)              117.5665                                         !
 ! A8    A(3,4,5)              120.9685                                         !
 ! A9    A(3,4,16)             119.1581                                         !
 ! A10   A(5,4,16)             119.8687                                         !
 ! A11   A(4,5,6)              120.6324                                         !
 ! A12   A(4,5,17)             119.4262                                         !
 ! A13   A(6,5,17)             119.941                                          !
 ! A14   A(5,6,7)              119.1914                                         !
 ! A15   A(5,6,18)             120.4235                                         !
 ! A16   A(7,6,18)             120.3827                                         !
 ! A17   A(6,7,8)              120.6753                                         !
 ! A18   A(6,7,19)             119.9748                                         !
 ! A19   A(8,7,19)             119.3447                                         !
 ! A20   A(3,8,7)              120.9469                                         !
 ! A21   A(3,8,20)             119.8602                                         !
 ! A22   A(7,8,20)             119.1656                                         !
 ! A23   A(2,9,10)             120.3165                                         !
 ! A24   A(2,9,14)             122.0137                                         !
 ! A25   A(10,9,14)            117.6116                                         !
 ! A26   A(9,10,11)            121.0439                                         !
 ! A27   A(9,10,21)            120.0593                                         !
 ! A28   A(11,10,21)           118.8565                                         !
 ! A29   A(10,11,12)           120.486                                          !
 ! A30   A(10,11,22)           119.4334                                         !
 ! A31   A(12,11,22)           120.0774                                         !
 ! A32   A(11,12,13)           119.2709                                         !
 ! A33   A(11,12,23)           120.37                                           !
 ! A34   A(13,12,23)           120.3583                                         !
 ! A35   A(12,13,14)           120.6253                                         !
 ! A36   A(12,13,24)           119.9822                                         !
 ! A37   A(14,13,24)           119.3861                                         !
 ! A38   A(9,14,13)            120.9562                                         !
 ! A39   A(9,14,25)            119.6683                                         !
 ! A40   A(13,14,25)           119.34                                           !
 ! D1    D(15,1,2,3)          -161.108                                          !
 ! D2    D(15,1,2,9)            20.6124                                         !
 ! D3    D(1,2,3,4)             19.3578                                         !
 ! D4    D(1,2,3,8)           -158.121                                          !
 ! D5    D(9,2,3,4)           -162.5428                                         !
 ! D6    D(9,2,3,8)             19.9784                                         !
 ! D7    D(1,2,9,10)            26.4197                                         !
 ! D8    D(1,2,9,14)          -150.7399                                         !
 ! D9    D(3,2,9,10)          -151.6191                                         !
 ! D10   D(3,2,9,14)            31.2213                                         !
 ! D11   D(2,3,4,5)           -179.0478                                         !
 ! D12   D(2,3,4,16)             1.7523                                         !
 ! D13   D(8,3,4,5)             -1.4492                                         !
 ! D14   D(8,3,4,16)           179.351                                          !
 ! D15   D(2,3,8,7)            179.0114                                         !
 ! D16   D(2,3,8,20)             0.9272                                         !
 ! D17   D(4,3,8,7)              1.4746                                         !
 ! D18   D(4,3,8,20)          -176.6095                                         !
 ! D19   D(3,4,5,6)              0.4416                                         !
 ! D20   D(3,4,5,17)          -179.3555                                         !
 ! D21   D(16,4,5,6)           179.6358                                         !
 ! D22   D(16,4,5,17)           -0.1613                                         !
 ! D23   D(4,5,6,7)              0.5859                                         !
 ! D24   D(4,5,6,18)          -179.9764                                         !
 ! D25   D(17,5,6,7)          -179.618                                          !
 ! D26   D(17,5,6,18)           -0.1803                                         !
 ! D27   D(5,6,7,8)             -0.5604                                         !
 ! D28   D(5,6,7,19)           178.604                                          !
 ! D29   D(18,6,7,8)          -179.9983                                         !
 ! D30   D(18,6,7,19)           -0.8339                                         !
 ! D31   D(6,7,8,3)             -0.4935                                         !
 ! D32   D(6,7,8,20)           177.6037                                         !
 ! D33   D(19,7,8,3)          -179.6631                                         !
 ! D34   D(19,7,8,20)           -1.5658                                         !
 ! D35   D(2,9,10,11)         -178.0324                                         !
 ! D36   D(2,9,10,21)            4.3031                                         !
 ! D37   D(14,9,10,11)          -0.7502                                         !
 ! D38   D(14,9,10,21)        -178.4148                                         !
 ! D39   D(2,9,14,13)          178.1058                                         !
 ! D40   D(2,9,14,25)            0.2884                                         !
 ! D41   D(10,9,14,13)           0.8728                                         !
 ! D42   D(10,9,14,25)        -176.9445                                         !
 ! D43   D(9,10,11,12)           0.122                                          !
 ! D44   D(9,10,11,22)        -179.2305                                         !
 ! D45   D(21,10,11,12)        177.814                                          !
 ! D46   D(21,10,11,22)         -1.5384                                         !
 ! D47   D(10,11,12,13)          0.4065                                         !
 ! D48   D(10,11,12,23)       -179.9258                                         !
 ! D49   D(22,11,12,13)        179.7547                                         !
 ! D50   D(22,11,12,23)         -0.5776                                         !
 ! D51   D(11,12,13,14)         -0.2837                                         !
 ! D52   D(11,12,13,24)        178.7879                                         !
 ! D53   D(23,12,13,14)       -179.9515                                         !
 ! D54   D(23,12,13,24)         -0.8798                                         !
 ! D55   D(12,13,14,9)          -0.3698                                         !
 ! D56   D(12,13,14,25)        177.4546                                         !
 ! D57   D(24,13,14,9)        -179.447                                          !
 ! D58   D(24,13,14,25)         -1.6226                                         !
 --------------------------------------------------------------------------------
                          Input orientation:                          
 ---------------------------------------------------------------------
 Center     Atomic      Atomic             Coordinates (Angstroms)
 Number     Number       Type             X           Y           Z
 ---------------------------------------------------------------------
      1          8           0       -0.047011   -2.276953    0.062579
      2          6           0       -0.003186   -0.918875    0.038704
      3          6           0       -1.287075   -0.280057   -0.011392
      4          6           0       -2.442788   -0.990041    0.372260
      5          6           0       -3.691447   -0.401013    0.313395
      6          6           0       -3.837389    0.906558   -0.135705
      7          6           0       -2.710551    1.615138   -0.538578
      8          6           0       -1.457439    1.036297   -0.484530
      9          6           0        1.291046   -0.276673    0.027118
     10          6           0        2.410638   -0.944680   -0.501904
     11          6           0        3.664584   -0.360097   -0.483985
     12          6           0        3.844782    0.903514    0.061716
     13          6           0        2.751624    1.574215    0.599182
     14          6           0        1.496565    0.996930    0.587747
     15          1           0        0.786938   -2.629513    0.386451
     16          1           0       -2.342863   -2.005637    0.729075
     17          1           0       -4.561563   -0.966117    0.624218
     18          1           0       -4.816940    1.364702   -0.180066
     19          1           0       -2.812279    2.626599   -0.911917
     20          1           0       -0.603000    1.595284   -0.840334
     21          1           0        2.293366   -1.916358   -0.966294
     22          1           0        4.505950   -0.892420   -0.909585
     23          1           0        4.826167    1.359470    0.073668
     24          1           0        2.882647    2.552043    1.045459
     25          1           0        0.669009    1.518929    1.048267
 ---------------------------------------------------------------------
                    Distance matrix (angstroms):
                    1          2          3          4          5
     1  O    0.000000
     2  C    1.358994   0.000000
     3  C    2.351770   1.434911   0.000000
     4  C    2.737113   2.463327   1.409588   0.000000
     5  C    4.106577   3.734556   2.429222   1.381871   0.000000
     6  C    4.953890   4.250146   2.815602   2.408325   1.390228
     7  C    4.754388   3.752906   2.428162   2.772774   2.398516
     8  C    3.642288   2.492253   1.409138   2.410611   2.773686
     9  C    2.406819   1.444851   2.578411   3.817006   4.992259
    10  C    2.851952   2.473756   3.788853   4.931730   6.180269
    11  C    4.212957   3.746729   4.974804   6.199192   7.399235
    12  C    5.026075   4.257757   5.267081   6.573851   7.652443
    13  C    4.790804   3.757475   4.485779   5.797311   6.745100
    14  C    3.657423   2.494196   3.120628   4.417351   5.380055
    15  H    0.961594   1.916117   3.159075   3.622044   5.002748
    16  H    2.405985   2.670534   2.154206   1.081081   2.136887
    17  H    4.734438   4.596069   3.405429   2.133837   1.083076
    18  H    6.006059   5.332430   3.897900   3.389170   2.151276
    19  H    5.713245   4.622237   3.403798   3.855609   3.382420
    20  H    4.014797   2.730106   2.161483   3.396926   3.854192
    21  H    2.581855   2.697989   4.050787   5.008088   6.304908
    22  H    4.857108   4.607848   5.894139   7.066655   8.302679
    23  H    6.080424   5.339918   6.329850   7.645068   8.700949
    24  H    5.733076   4.624810   5.150176   6.431160   7.243975
    25  H    3.986601   2.722858   2.861030   4.054035   4.820767
                    6          7          8          9         10
     6  C    0.000000
     7  C    1.390739   0.000000
     8  C    2.408874   1.381400   0.000000
     9  C    5.265681   4.462257   3.088663   0.000000
    10  C    6.526793   5.725433   4.345871   1.406977   0.000000
    11  C    7.616122   6.674345   5.308958   2.429376   1.383633
    12  C    7.684708   6.621114   5.331938   2.813468   2.406296
    13  C    6.663402   5.579563   4.379498   2.426176   2.770107
    14  C    5.383551   4.398933   3.142844   1.406629   2.406806
    15  H    5.844729   5.577201   4.385658   2.432921   2.502846
    16  H    3.385607   3.853848   3.392664   4.085016   5.023615
    17  H    2.146817   3.382487   3.856756   5.923250   7.062591
    18  H    1.082304   2.151307   3.389217   6.328074   7.594386
    19  H    2.147533   1.082952   2.132443   5.113516   6.340426
    20  H    3.381142   2.129136   1.081263   2.800733   3.955751
    21  H    6.800360   6.139511   4.797792   2.163350   1.083314
    22  H    8.570095   7.648750   6.281929   3.404727   2.135244
    23  H    8.677912   7.565865   6.316623   3.895665   3.387502
    24  H    7.018665   5.888194   4.845070   3.401742   3.852817
    25  H    4.699405   3.734804   2.665367   2.157281   3.392001
                   11         12         13         14         15
    11  C    0.000000
    12  C    1.388155   0.000000
    13  C    2.397563   1.390576   0.000000
    14  C    2.773163   2.408226   1.381507   0.000000
    15  H    3.766796   4.683817   4.645060   3.700700   0.000000
    16  H    6.345765   6.869897   6.227842   4.876125   3.209715
    17  H    8.322551   8.630096   7.741874   6.368344   5.606236
    18  H    8.660459   8.677360   7.611457   6.370647   6.904936
    19  H    7.145154   6.945030   5.860712   4.844683   6.501295
    20  H    4.707735   4.590752   3.650500   2.608757   4.613658
    21  H    2.129509   3.378665   3.852897   3.396643   2.146586
    22  H    1.082774   2.146147   3.382059   3.855910   4.304446
    23  H    2.148758   1.082199   2.150815   3.388503   5.685524
    24  H    3.381004   2.147348   1.082810   2.132862   5.628039
    25  H    3.853830   3.381945   2.131202   1.081394   4.202557
                   16         17         18         19         20
    16  H    0.000000
    17  H    2.452391   0.000000
    18  H    4.278641   2.478872   0.000000
    19  H    4.936681   4.281042   2.479245   0.000000
    20  H    4.296138   4.937196   4.271582   2.439190   0.000000
    21  H    4.937294   7.100897   7.870194   6.834400   4.553727
    22  H    7.129566   9.196617   9.619931   8.120343   5.682854
    23  H    7.946602   9.687152   9.646445   7.805309   5.510613
    24  H    6.941074   8.244462   7.886401   6.022380   4.076928
    25  H    4.647131   5.806389   5.623897   4.145916   2.278300
                   21         22         23         24         25
    21  H    0.000000
    22  H    2.438687   0.000000
    23  H    4.269385   2.477969   0.000000
    24  H    4.935688   4.280378   2.478685   0.000000
    25  H    4.300953   4.936589   4.272848   2.442852   0.000000
 Stoichiometry    C13H11O(2)
 Framework group  C1[X(C13H11O)]
 Deg. of freedom    69
 Full point group                 C1      NOp   1
 Largest Abelian subgroup         C1      NOp   1
 Largest concise Abelian subgroup C1      NOp   1
                         Standard orientation:                         
 ---------------------------------------------------------------------
 Center     Atomic      Atomic             Coordinates (Angstroms)
 Number     Number       Type             X           Y           Z
 ---------------------------------------------------------------------
      1          8           0       -0.057552    2.292897   -0.066947
      2          6           0       -0.011312    0.934909   -0.042536
      3          6           0       -1.294072    0.293824    0.007540
      4          6           0       -2.450967    1.001599   -0.376629
      5          6           0       -3.698587    0.410370   -0.317797
      6          6           0       -3.842294   -0.897285    0.131780
      7          6           0       -2.714279   -1.603700    0.535164
      8          6           0       -1.462189   -1.022648    0.481153
      9          6           0        1.284060    0.295017   -0.030430
     10          6           0        2.402349    0.965224    0.498567
     11          6           0        3.657338    0.382869    0.481137
     12          6           0        3.839901   -0.880631   -0.064035
     13          6           0        2.748053   -1.553487   -0.601469
     14          6           0        1.491965   -0.978434   -0.590521
     15          1           0        0.775836    2.646817   -0.390781
     16          1           0       -2.352777    2.017232   -0.733818
     17          1           0       -4.569643    0.973802   -0.629021
     18          1           0       -4.821036   -1.357156    0.176114
     19          1           0       -2.814283   -2.615196    0.908874
     20          1           0       -0.606830   -1.579974    0.837353
     21          1           0        2.283248    1.936872    0.962555
     22          1           0        4.497665    0.916854    0.906707
     23          1           0        4.822099   -1.334842   -0.075605
     24          1           0        2.880911   -2.531253   -1.047339
     25          1           0        0.665437   -1.502086   -1.051012
 ---------------------------------------------------------------------
 Rotational constants (GHZ):           1.7107448           0.4079702           0.3430186
 Standard basis: def2TZVP (5D, 7F)
 There are   570 symmetry adapted cartesian basis functions of A   symmetry.
 There are   500 symmetry adapted basis functions of A   symmetry.
   500 basis functions,   802 primitive gaussians,   570 cartesian basis functions
    49 alpha electrons       48 beta electrons
       nuclear repulsion energy       791.4941088166 Hartrees.
 NAtoms=   25 NActive=   25 NUniq=   25 SFac= 1.00D+00 NAtFMM=   60 NAOKFM=F Big=F
 Integral buffers will be    131072 words long.
 Raffenetti 2 integral format.
 Two-electron integral symmetry is turned on.
 Nuclear repulsion after empirical dispersion term =      791.4794629359 Hartrees.
 ------------------------------------------------------------------------------
 Polarizable Continuum Model (PCM)
 =================================
 Model                : C-PCM.
 Atomic radii         : UFF (Universal Force Field).
 Polarization charges : Total charges.
 Charge compensation  : None.
 Solution method      : On-the-fly selection.
 Cavity type          : Scaled VdW (van der Waals Surface) (Alpha=1.100).
 Cavity algorithm     : GePol (No added spheres)
                        Default sphere list used, NSphG=   25.
                        Lebedev-Laikov grids with approx.  5.0 points / Ang**2.
                        Smoothing algorithm: York/Karplus (Gamma=1.0000).
                        Polarization charges: spherical gaussians, with
                                              point-specific exponents (IZeta= 3).
                        Self-potential: point-specific (ISelfS= 7).
                        Self-field    : sphere-specific E.n sum rule (ISelfD= 2).
 Solvent              : n,n-DiMethylFormamide, Eps=  37.219000 Eps(inf)=   2.046330
 ------------------------------------------------------------------------------
 One-electron integrals computed using PRISM.
   1 Symmetry operations used in ECPInt.
 ECPInt:  NShTT=   19701 NPrTT=   60372 LenC2=   18217 LenP2D=   41793.
 LDataN:  DoStor=T MaxTD1= 6 Len=  172
 NBasis=   500 RedAO= T EigKep=  7.57D-06  NBF=   500
 NBsUse=   500 1.00D-06 EigRej= -1.00D+00 NBFU=   500
 Initial guess from the checkpoint file:  "rafrad_opt.chk"
 B after Tr=    -0.000000    0.000000    0.000000
         Rot=    1.000000    0.000000   -0.000000   -0.000000 Ang=   0.00 deg.
 Initial guess <Sx>= 0.0000 <Sy>= 0.0000 <Sz>= 0.5000 <S**2>= 0.7909 S= 0.5202
 Requested convergence on RMS density matrix=1.00D-08 within 128 cycles.
 Requested convergence on MAX density matrix=1.00D-06.
 Requested convergence on             energy=1.00D-06.
 No special actions if energy rises.
 Inv3:  Mode=1 IEnd=    11892243.
 Iteration    1 A*A^-1 deviation from unit magnitude is 3.55D-15 for    903.
 Iteration    1 A*A^-1 deviation from orthogonality  is 1.68D-15 for   1654   1353.
 Iteration    1 A^-1*A deviation from unit magnitude is 3.55D-15 for    903.
 Iteration    1 A^-1*A deviation from orthogonality  is 2.07D-15 for    878    113.
 Error on total polarization charges =  0.01567
 SCF Done:  E(UwB97XD) =  -577.214279662     A.U. after    1 cycles
            NFock=  1  Conv=0.70D-09     -V/T= 2.0048
 <Sx>= 0.0000 <Sy>= 0.0000 <Sz>= 0.5000 <S**2>= 0.7909 S= 0.5202
 <L.S>=  0.00000000000    
 Annihilation of the first spin contaminant:
 S**2 before annihilation     0.7909,   after     0.7515
 DoSCS=F DFT=T ScalE2(SS,OS)=  1.000000  1.000000
 ExpMin= 9.52D-02 ExpMax= 2.70D+04 ExpMxC= 9.22D+02 IAcc=3 IRadAn=         5 AccDes= 0.00D+00
 HarFok:  IExCor=  205 AccDes= 0.00D+00 IRadAn=         5 IDoV=-2 UseB2=F ITyADJ=14
 ICtDFT= 12500011 ScaDFX=  1.000000  1.000000  1.000000  1.000000
 Range of M.O.s used for correlation:    15   500
 NBasis=   500 NAE=    49 NBE=    48 NFC=    14 NFV=     0
 NROrb=    486 NOA=    35 NOB=    34 NVA=   451 NVB=   452

 **** Warning!!: The largest alpha MO coefficient is  0.57034463D+02


 **** Warning!!: The largest beta MO coefficient is  0.57210475D+02

 NEqPCM:  Using non-equilibrium solvation (IEInf=1, Eps=  37.2190, EpsInf=   2.0463)
 Inv3:  Mode=1 IEnd=    11892243.
 Iteration    1 A*A^-1 deviation from unit magnitude is 3.55D-15 for    903.
 Iteration    1 A*A^-1 deviation from orthogonality  is 1.68D-15 for   1654   1353.
 Iteration    1 A^-1*A deviation from unit magnitude is 3.55D-15 for    903.
 Iteration    1 A^-1*A deviation from orthogonality  is 2.07D-15 for    878    113.
 Orbital symmetries:
 Alpha Orbitals:
       Occupied  (A) (A) (A) (A) (A) (A) (A) (A) (A) (A) (A) (A)
                 (A) (A) (A) (A) (A) (A) (A) (A) (A) (A) (A) (A)
                 (A) (A) (A) (A) (A) (A) (A) (A) (A) (A) (A) (A)
                 (A) (A) (A) (A) (A) (A) (A) (A) (A) (A) (A) (A)
                 (A)
       Virtual   (A) (A) (A) (A) (A) (A) (A) (A) (A) (A) (A) (A)
                 (A) (A) (A) (A) (A) (A) (A) (A) (A) (A) (A) (A)
                 (A) (A) (A) (A) (A) (A) (A) (A) (A) (A) (A) (A)
                 (A) (A) (A) (A) (A) (A) (A) (A) (A) (A) (A) (A)
                 (A) (A) (A) (A) (A) (A) (A) (A) (A) (A) (A) (A)
                 (A) (A) (A) (A) (A) (A) (A) (A) (A) (A) (A) (A)
                 (A) (A) (A) (A) (A) (A) (A) (A) (A) (A) (A) (A)
                 (A) (A) (A) (A) (A) (A) (A) (A) (A) (A) (A) (A)
                 (A) (A) (A) (A) (A) (A) (A) (A) (A) (A) (A) (A)
                 (A) (A) (A) (A) (A) (A) (A) (A) (A) (A) (A) (A)
                 (A) (A) (A) (A) (A) (A) (A) (A) (A) (A) (A) (A)
                 (A) (A) (A) (A) (A) (A) (A) (A) (A) (A) (A) (A)
                 (A) (A) (A) (A) (A) (A) (A) (A) (A) (A) (A) (A)
                 (A) (A) (A) (A) (A) (A) (A) (A) (A) (A) (A) (A)
                 (A) (A) (A) (A) (A) (A) (A) (A) (A) (A) (A) (A)
                 (A) (A) (A) (A) (A) (A) (A) (A) (A) (A) (A) (A)
                 (A) (A) (A) (A) (A) (A) (A) (A) (A) (A) (A) (A)
                 (A) (A) (A) (A) (A) (A) (A) (A) (A) (A) (A) (A)
                 (A) (A) (A) (A) (A) (A) (A) (A) (A) (A) (A) (A)
                 (A) (A) (A) (A) (A) (A) (A) (A) (A) (A) (A) (A)
                 (A) (A) (A) (A) (A) (A) (A) (A) (A) (A) (A) (A)
                 (A) (A) (A) (A) (A) (A) (A) (A) (A) (A) (A) (A)
                 (A) (A) (A) (A) (A) (A) (A) (A) (A) (A) (A) (A)
                 (A) (A) (A) (A) (A) (A) (A) (A) (A) (A) (A) (A)
                 (A) (A) (A) (A) (A) (A) (A) (A) (A) (A) (A) (A)
                 (A) (A) (A) (A) (A) (A) (A) (A) (A) (A) (A) (A)
                 (A) (A) (A) (A) (A) (A) (A) (A) (A) (A) (A) (A)
                 (A) (A) (A) (A) (A) (A) (A) (A) (A) (A) (A) (A)
                 (A) (A) (A) (A) (A) (A) (A) (A) (A) (A) (A) (A)
                 (A) (A) (A) (A) (A) (A) (A) (A) (A) (A) (A) (A)
                 (A) (A) (A) (A) (A) (A) (A) (A) (A) (A) (A) (A)
                 (A) (A) (A) (A) (A) (A) (A) (A) (A) (A) (A) (A)
                 (A) (A) (A) (A) (A) (A) (A) (A) (A) (A) (A) (A)
                 (A) (A) (A) (A) (A) (A) (A) (A) (A) (A) (A) (A)
                 (A) (A) (A) (A) (A) (A) (A) (A) (A) (A) (A) (A)
                 (A) (A) (A) (A) (A) (A) (A) (A) (A) (A) (A) (A)
                 (A) (A) (A) (A) (A) (A) (A) (A) (A) (A) (A) (A)
                 (A) (A) (A) (A) (A) (A) (A)
 Beta  Orbitals:
       Occupied  (A) (A) (A) (A) (A) (A) (A) (A) (A) (A) (A) (A)
                 (A) (A) (A) (A) (A) (A) (A) (A) (A) (A) (A) (A)
                 (A) (A) (A) (A) (A) (A) (A) (A) (A) (A) (A) (A)
                 (A) (A) (A) (A) (A) (A) (A) (A) (A) (A) (A) (A)
       Virtual   (A) (A) (A) (A) (A) (A) (A) (A) (A) (A) (A) (A)
                 (A) (A) (A) (A) (A) (A) (A) (A) (A) (A) (A) (A)
                 (A) (A) (A) (A) (A) (A) (A) (A) (A) (A) (A) (A)
                 (A) (A) (A) (A) (A) (A) (A) (A) (A) (A) (A) (A)
                 (A) (A) (A) (A) (A) (A) (A) (A) (A) (A) (A) (A)
                 (A) (A) (A) (A) (A) (A) (A) (A) (A) (A) (A) (A)
                 (A) (A) (A) (A) (A) (A) (A) (A) (A) (A) (A) (A)
                 (A) (A) (A) (A) (A) (A) (A) (A) (A) (A) (A) (A)
                 (A) (A) (A) (A) (A) (A) (A) (A) (A) (A) (A) (A)
                 (A) (A) (A) (A) (A) (A) (A) (A) (A) (A) (A) (A)
                 (A) (A) (A) (A) (A) (A) (A) (A) (A) (A) (A) (A)
                 (A) (A) (A) (A) (A) (A) (A) (A) (A) (A) (A) (A)
                 (A) (A) (A) (A) (A) (A) (A) (A) (A) (A) (A) (A)
                 (A) (A) (A) (A) (A) (A) (A) (A) (A) (A) (A) (A)
                 (A) (A) (A) (A) (A) (A) (A) (A) (A) (A) (A) (A)
                 (A) (A) (A) (A) (A) (A) (A) (A) (A) (A) (A) (A)
                 (A) (A) (A) (A) (A) (A) (A) (A) (A) (A) (A) (A)
                 (A) (A) (A) (A) (A) (A) (A) (A) (A) (A) (A) (A)
                 (A) (A) (A) (A) (A) (A) (A) (A) (A) (A) (A) (A)
                 (A) (A) (A) (A) (A) (A) (A) (A) (A) (A) (A) (A)
                 (A) (A) (A) (A) (A) (A) (A) (A) (A) (A) (A) (A)
                 (A) (A) (A) (A) (A) (A) (A) (A) (A) (A) (A) (A)
                 (A) (A) (A) (A) (A) (A) (A) (A) (A) (A) (A) (A)
                 (A) (A) (A) (A) (A) (A) (A) (A) (A) (A) (A) (A)
                 (A) (A) (A) (A) (A) (A) (A) (A) (A) (A) (A) (A)
                 (A) (A) (A) (A) (A) (A) (A) (A) (A) (A) (A) (A)
                 (A) (A) (A) (A) (A) (A) (A) (A) (A) (A) (A) (A)
                 (A) (A) (A) (A) (A) (A) (A) (A) (A) (A) (A) (A)
                 (A) (A) (A) (A) (A) (A) (A) (A) (A) (A) (A) (A)
                 (A) (A) (A) (A) (A) (A) (A) (A) (A) (A) (A) (A)
                 (A) (A) (A) (A) (A) (A) (A) (A) (A) (A) (A) (A)
                 (A) (A) (A) (A) (A) (A) (A) (A) (A) (A) (A) (A)
                 (A) (A) (A) (A) (A) (A) (A) (A) (A) (A) (A) (A)
                 (A) (A) (A) (A) (A) (A) (A) (A) (A) (A) (A) (A)
                 (A) (A) (A) (A) (A) (A) (A) (A) (A) (A) (A) (A)
                 (A) (A) (A) (A) (A) (A) (A) (A) (A) (A) (A) (A)
                 (A) (A) (A) (A) (A) (A) (A) (A) (A) (A) (A) (A)
                 (A) (A) (A) (A) (A) (A) (A) (A)
   240 initial guesses have been made.
 Convergence on wavefunction:    0.001000000000000
 Iteration     1 Dimension   240 NMult     0 NNew    240
 CISAX will form   240 AO SS matrices at one time.
 New state      4 was old state      8
 New state      5 was old state      4
 New state      6 was old state      5
 New state      7 was old state      6
 New state      8 was old state     24
 New state      9 was old state     27
 New state     10 was old state      9
 New state     11 was old state     19
 New state     12 was old state     25
 New state     13 was old state      7
 New state     14 was old state     13
 New state     16 was old state     12
 New state     17 was old state     36
 New state     18 was old state     31
 New state     19 was old state     10
 New state     20 was old state     17
 New state     21 was old state     16
 New state     22 was old state     11
 New state     23 was old state     38
 New state     24 was old state     40
 New state     25 was old state     18
 New state     26 was old state     14
 New state     27 was old state     26
 New state     28 was old state     21
 New state     29 was old state     45
 New state     30 was old state     46
 New state     31 was old state     34
 New state     32 was old state     47
 New state     33 was old state     35
 New state     34 was old state     42
 New state     35 was old state     55
 New state     36 was old state     77
 New state     37 was old state     84
 New state     38 was old state     79
 New state     39 was old state     37
 New state     40 was old state     20
 New state     41 was old state     53
 New state     42 was old state     28
 New state     43 was old state     56
 New state     44 was old state     39
 New state     45 was old state     32
 New state     46 was old state     22
 New state     47 was old state     33
 New state     48 was old state     87
 New state     49 was old state     59
 New state     50 was old state     92
 New state     51 was old state    109
 New state     52 was old state     43
 New state     53 was old state     67
 New state     54 was old state     41
 New state     55 was old state     64
 New state     56 was old state    125
 New state     57 was old state     82
 New state     58 was old state     98
 New state     59 was old state     69
 New state     60 was old state     44
 Iteration     2 Dimension   360 NMult   240 NNew    120
 New state     10 was old state     13
 New state     11 was old state     10
 New state     12 was old state     11
 New state     13 was old state     12
 New state     22 was old state     26
 New state     23 was old state     28
 New state     24 was old state     22
 New state     25 was old state     23
 New state     26 was old state     24
 New state     27 was old state     25
 New state     28 was old state     27
 New state     31 was old state     40
 New state     33 was old state     38
 New state     34 was old state     42
 New state     35 was old state     31
 New state     36 was old state     34
 New state     37 was old state     36
 New state     38 was old state     33
 New state     39 was old state     37
 New state     40 was old state     35
 New state     41 was old state     45
 New state     42 was old state     41
 New state     44 was old state     39
 New state     45 was old state     46
 New state     46 was old state     44
 New state     48 was old state     53
 New state     49 was old state     52
 New state     50 was old state     49
 New state     51 was old state     50
 New state     52 was old state     51
 New state     53 was old state     48
 New state     54 was old state     55
 New state     55 was old state     56
 New state     56 was old state     54
 Iteration     3 Dimension   480 NMult   360 NNew    120
 New state     46 was old state     47
 New state     47 was old state     46
 New state     55 was old state     57
 New state     56 was old state     55
 New state     57 was old state     56
 Iteration     4 Dimension   600 NMult   480 NNew    120
 Iteration     5 Dimension   680 NMult   600 NNew     80
 Iteration     6 Dimension   706 NMult   680 NNew     26
 Iteration     7 Dimension   708 NMult   706 NNew      2
 Iteration     8 Dimension   710 NMult   708 NNew      2
 Convergence on energies, max DE= 6.98D-07.
 ***********************************************************************
 Excited states from <AA,BB:AA,BB> singles matrix:
 ***********************************************************************
 
 ExtSpn:  IState=     1 X2= 1.021 Y2= 0.021 X2-Y2-1=-1.11D-16
          S2Grnd=  0.791 Ra=  0.061 Rb=  0.039 T=  0.086 S2Ext=  0.186 S2=  0.977
 ExtSpn:  IState=     2 X2= 1.005 Y2= 0.005 X2-Y2-1= 0.00D+00
          S2Grnd=  0.791 Ra=  0.074 Rb=  0.026 T=  0.051 S2Ext=  0.151 S2=  0.942
 ExtSpn:  IState=     3 X2= 1.004 Y2= 0.004 X2-Y2-1= 1.55D-15
          S2Grnd=  0.791 Ra=  0.083 Rb=  0.036 T=  0.059 S2Ext=  0.178 S2=  0.968
 ExtSpn:  IState=     4 X2= 1.035 Y2= 0.035 X2-Y2-1=-5.55D-16
          S2Grnd=  0.791 Ra=  0.244 Rb=  0.266 T=  0.503 S2Ext=  1.013 S2=  1.804
 ExtSpn:  IState=     5 X2= 1.022 Y2= 0.022 X2-Y2-1= 2.22D-16
          S2Grnd=  0.791 Ra=  0.123 Rb=  0.243 T=  0.326 S2Ext=  0.692 S2=  1.482
 ExtSpn:  IState=     6 X2= 1.006 Y2= 0.006 X2-Y2-1= 1.33D-15
          S2Grnd=  0.791 Ra=  0.047 Rb=  0.174 T=  0.172 S2Ext=  0.393 S2=  1.184
 ExtSpn:  IState=     7 X2= 1.006 Y2= 0.006 X2-Y2-1= 8.88D-16
          S2Grnd=  0.791 Ra=  0.074 Rb=  0.237 T=  0.244 S2Ext=  0.555 S2=  1.345
 ExtSpn:  IState=     8 X2= 1.012 Y2= 0.012 X2-Y2-1= 0.00D+00
          S2Grnd=  0.791 Ra=  0.349 Rb=  0.386 T=  0.734 S2Ext=  1.469 S2=  2.260
 ExtSpn:  IState=     9 X2= 1.010 Y2= 0.010 X2-Y2-1= 0.00D+00
          S2Grnd=  0.791 Ra=  0.350 Rb=  0.354 T=  0.694 S2Ext=  1.399 S2=  2.190
 ExtSpn:  IState=    10 X2= 1.008 Y2= 0.008 X2-Y2-1=-2.22D-16
          S2Grnd=  0.791 Ra=  0.059 Rb=  0.066 T= -0.020 S2Ext=  0.105 S2=  0.896
 ExtSpn:  IState=    11 X2= 1.001 Y2= 0.001 X2-Y2-1=-2.22D-16
          S2Grnd=  0.791 Ra=  0.077 Rb=  0.108 T=  0.134 S2Ext=  0.320 S2=  1.111
 ExtSpn:  IState=    12 X2= 1.003 Y2= 0.003 X2-Y2-1=-7.77D-16
          S2Grnd=  0.791 Ra=  0.276 Rb=  0.490 T=  0.466 S2Ext=  1.232 S2=  2.022
 ExtSpn:  IState=    13 X2= 1.003 Y2= 0.003 X2-Y2-1=-6.66D-16
          S2Grnd=  0.791 Ra=  0.350 Rb=  0.580 T=  0.563 S2Ext=  1.494 S2=  2.285
 ExtSpn:  IState=    14 X2= 1.005 Y2= 0.005 X2-Y2-1=-7.77D-16
          S2Grnd=  0.791 Ra=  0.413 Rb=  0.259 T=  0.600 S2Ext=  1.273 S2=  2.064
 ExtSpn:  IState=    15 X2= 1.005 Y2= 0.005 X2-Y2-1= 4.44D-16
          S2Grnd=  0.791 Ra=  0.812 Rb=  0.056 T=  0.341 S2Ext=  1.209 S2=  2.000
 ExtSpn:  IState=    16 X2= 1.005 Y2= 0.005 X2-Y2-1= 2.22D-16
          S2Grnd=  0.791 Ra=  0.557 Rb=  0.221 T=  0.599 S2Ext=  1.377 S2=  2.168
 ExtSpn:  IState=    17 X2= 1.004 Y2= 0.004 X2-Y2-1=-2.22D-16
          S2Grnd=  0.791 Ra=  0.680 Rb=  0.161 T=  0.546 S2Ext=  1.386 S2=  2.177
 ExtSpn:  IState=    18 X2= 1.001 Y2= 0.001 X2-Y2-1= 0.00D+00
          S2Grnd=  0.791 Ra=  0.022 Rb=  0.087 T= -0.001 S2Ext=  0.108 S2=  0.899
 ExtSpn:  IState=    19 X2= 1.000 Y2= 0.000 X2-Y2-1=-2.22D-16
          S2Grnd=  0.791 Ra=  0.062 Rb=  0.009 T= -0.004 S2Ext=  0.067 S2=  0.858
 ExtSpn:  IState=    20 X2= 1.003 Y2= 0.003 X2-Y2-1=-3.33D-16
          S2Grnd=  0.791 Ra=  0.218 Rb=  0.534 T= -0.288 S2Ext=  0.464 S2=  1.255
 ExtSpn:  IState=    21 X2= 1.003 Y2= 0.003 X2-Y2-1=-1.11D-16
          S2Grnd=  0.791 Ra=  0.236 Rb=  0.566 T= -0.354 S2Ext=  0.449 S2=  1.240
 ExtSpn:  IState=    22 X2= 1.005 Y2= 0.005 X2-Y2-1= 0.00D+00
          S2Grnd=  0.791 Ra=  0.412 Rb=  0.447 T= -0.796 S2Ext=  0.063 S2=  0.854
 ExtSpn:  IState=    23 X2= 1.008 Y2= 0.008 X2-Y2-1= 0.00D+00
          S2Grnd=  0.791 Ra=  0.437 Rb=  0.449 T= -0.845 S2Ext=  0.041 S2=  0.832
 ExtSpn:  IState=    24 X2= 1.001 Y2= 0.001 X2-Y2-1=-1.11D-16
          S2Grnd=  0.791 Ra=  0.088 Rb=  0.025 T= -0.014 S2Ext=  0.098 S2=  0.889
 ExtSpn:  IState=    25 X2= 1.001 Y2= 0.001 X2-Y2-1= 6.66D-16
          S2Grnd=  0.791 Ra=  0.039 Rb=  0.205 T= -0.014 S2Ext=  0.229 S2=  1.020
 ExtSpn:  IState=    26 X2= 1.001 Y2= 0.001 X2-Y2-1=-1.78D-15
          S2Grnd=  0.791 Ra=  0.026 Rb=  0.226 T=  0.011 S2Ext=  0.263 S2=  1.054
 ExtSpn:  IState=    27 X2= 1.000 Y2= 0.000 X2-Y2-1= 4.44D-16
          S2Grnd=  0.791 Ra=  0.069 Rb=  0.007 T=  0.005 S2Ext=  0.081 S2=  0.872
 ExtSpn:  IState=    28 X2= 1.001 Y2= 0.001 X2-Y2-1= 2.22D-16
          S2Grnd=  0.791 Ra=  0.076 Rb=  0.053 T= -0.021 S2Ext=  0.108 S2=  0.899
 ExtSpn:  IState=    29 X2= 1.005 Y2= 0.005 X2-Y2-1=-1.11D-16
          S2Grnd=  0.791 Ra=  0.163 Rb=  0.309 T= -0.240 S2Ext=  0.232 S2=  1.023
 ExtSpn:  IState=    30 X2= 1.008 Y2= 0.008 X2-Y2-1= 8.88D-16
          S2Grnd=  0.791 Ra=  0.253 Rb=  0.409 T= -0.540 S2Ext=  0.122 S2=  0.913
 ExtSpn:  IState=    31 X2= 1.017 Y2= 0.017 X2-Y2-1= 0.00D+00
          S2Grnd=  0.791 Ra=  0.430 Rb=  0.441 T= -0.777 S2Ext=  0.095 S2=  0.886
 ExtSpn:  IState=    32 X2= 1.006 Y2= 0.006 X2-Y2-1=-7.77D-16
          S2Grnd=  0.791 Ra=  0.168 Rb=  0.417 T= -0.237 S2Ext=  0.348 S2=  1.139
 ExtSpn:  IState=    33 X2= 1.013 Y2= 0.013 X2-Y2-1=-2.22D-16
          S2Grnd=  0.791 Ra=  0.414 Rb=  0.432 T= -0.686 S2Ext=  0.160 S2=  0.950
 ExtSpn:  IState=    34 X2= 1.010 Y2= 0.010 X2-Y2-1=-4.44D-16
          S2Grnd=  0.791 Ra=  0.475 Rb=  0.464 T= -0.911 S2Ext=  0.028 S2=  0.819
 ExtSpn:  IState=    35 X2= 1.003 Y2= 0.003 X2-Y2-1=-3.33D-16
          S2Grnd=  0.791 Ra=  0.152 Rb=  0.297 T=  0.346 S2Ext=  0.795 S2=  1.586
 ExtSpn:  IState=    36 X2= 1.003 Y2= 0.003 X2-Y2-1=-2.22D-16
          S2Grnd=  0.791 Ra=  0.193 Rb=  0.313 T=  0.455 S2Ext=  0.961 S2=  1.752
 ExtSpn:  IState=    37 X2= 1.001 Y2= 0.001 X2-Y2-1= 0.00D+00
          S2Grnd=  0.791 Ra=  0.155 Rb=  0.058 T=  0.115 S2Ext=  0.329 S2=  1.119
 ExtSpn:  IState=    38 X2= 1.001 Y2= 0.001 X2-Y2-1=-1.11D-15
          S2Grnd=  0.791 Ra=  0.188 Rb=  0.087 T=  0.191 S2Ext=  0.467 S2=  1.258
 ExtSpn:  IState=    39 X2= 1.001 Y2= 0.001 X2-Y2-1=-9.99D-16
          S2Grnd=  0.791 Ra=  0.557 Rb=  0.361 T=  0.863 S2Ext=  1.781 S2=  2.572
 ExtSpn:  IState=    40 X2= 1.001 Y2= 0.001 X2-Y2-1=-1.11D-16
          S2Grnd=  0.791 Ra=  0.450 Rb=  0.364 T=  0.767 S2Ext=  1.581 S2=  2.372
 ExtSpn:  IState=    41 X2= 1.002 Y2= 0.002 X2-Y2-1=-1.11D-16
          S2Grnd=  0.791 Ra=  0.169 Rb=  0.546 T=  0.392 S2Ext=  1.107 S2=  1.898
 ExtSpn:  IState=    42 X2= 1.001 Y2= 0.001 X2-Y2-1= 6.66D-16
          S2Grnd=  0.791 Ra=  0.169 Rb=  0.277 T=  0.263 S2Ext=  0.709 S2=  1.500
 ExtSpn:  IState=    43 X2= 1.003 Y2= 0.003 X2-Y2-1= 0.00D+00
          S2Grnd=  0.791 Ra=  0.425 Rb=  0.524 T=  0.641 S2Ext=  1.590 S2=  2.381
 ExtSpn:  IState=    44 X2= 1.002 Y2= 0.002 X2-Y2-1=-3.33D-16
          S2Grnd=  0.791 Ra=  0.317 Rb=  0.643 T= -0.087 S2Ext=  0.873 S2=  1.664
 ExtSpn:  IState=    45 X2= 1.001 Y2= 0.001 X2-Y2-1= 2.22D-16
          S2Grnd=  0.791 Ra=  0.248 Rb=  0.066 T=  0.089 S2Ext=  0.403 S2=  1.194
 ExtSpn:  IState=    46 X2= 1.002 Y2= 0.002 X2-Y2-1= 0.00D+00
          S2Grnd=  0.791 Ra=  0.488 Rb=  0.453 T= -0.008 S2Ext=  0.933 S2=  1.724
 ExtSpn:  IState=    47 X2= 1.001 Y2= 0.001 X2-Y2-1= 4.44D-16
          S2Grnd=  0.791 Ra=  0.530 Rb=  0.401 T=  0.458 S2Ext=  1.388 S2=  2.179
 ExtSpn:  IState=    48 X2= 1.001 Y2= 0.001 X2-Y2-1=-7.77D-16
          S2Grnd=  0.791 Ra=  0.705 Rb=  0.220 T= -0.062 S2Ext=  0.862 S2=  1.653
 ExtSpn:  IState=    49 X2= 1.001 Y2= 0.001 X2-Y2-1=-4.44D-16
          S2Grnd=  0.791 Ra=  0.448 Rb=  0.430 T= -0.423 S2Ext=  0.456 S2=  1.246
 ExtSpn:  IState=    50 X2= 1.001 Y2= 0.001 X2-Y2-1=-1.11D-16
          S2Grnd=  0.791 Ra=  0.290 Rb=  0.500 T=  0.225 S2Ext=  1.015 S2=  1.805
 ExtSpn:  IState=    51 X2= 1.001 Y2= 0.001 X2-Y2-1=-1.11D-16
          S2Grnd=  0.791 Ra=  0.744 Rb=  0.220 T=  0.479 S2Ext=  1.442 S2=  2.233
 ExtSpn:  IState=    52 X2= 1.001 Y2= 0.001 X2-Y2-1=-1.33D-15
          S2Grnd=  0.791 Ra=  0.639 Rb=  0.318 T=  0.174 S2Ext=  1.131 S2=  1.921
 ExtSpn:  IState=    53 X2= 1.001 Y2= 0.001 X2-Y2-1=-1.11D-16
          S2Grnd=  0.791 Ra=  0.574 Rb=  0.312 T=  0.029 S2Ext=  0.915 S2=  1.705
 ExtSpn:  IState=    54 X2= 1.002 Y2= 0.002 X2-Y2-1=-4.44D-16
          S2Grnd=  0.791 Ra=  0.312 Rb=  0.385 T=  0.020 S2Ext=  0.717 S2=  1.508
 ExtSpn:  IState=    55 X2= 1.001 Y2= 0.001 X2-Y2-1= 0.00D+00
          S2Grnd=  0.791 Ra=  0.167 Rb=  0.802 T=  0.029 S2Ext=  0.998 S2=  1.789
 ExtSpn:  IState=    56 X2= 1.001 Y2= 0.001 X2-Y2-1=-4.44D-16
          S2Grnd=  0.791 Ra=  0.526 Rb=  0.122 T= -0.141 S2Ext=  0.507 S2=  1.298
 ExtSpn:  IState=    57 X2= 1.000 Y2= 0.000 X2-Y2-1= 4.44D-16
          S2Grnd=  0.791 Ra=  0.291 Rb=  0.617 T= -0.402 S2Ext=  0.505 S2=  1.296
 ExtSpn:  IState=    58 X2= 1.000 Y2= 0.000 X2-Y2-1=-8.88D-16
          S2Grnd=  0.791 Ra=  0.339 Rb=  0.366 T= -0.170 S2Ext=  0.535 S2=  1.326
 ExtSpn:  IState=    59 X2= 1.001 Y2= 0.001 X2-Y2-1= 2.22D-16
          S2Grnd=  0.791 Ra=  0.587 Rb=  0.193 T= -0.364 S2Ext=  0.416 S2=  1.207
 ExtSpn:  IState=    60 X2= 1.001 Y2= 0.001 X2-Y2-1= 6.66D-16
          S2Grnd=  0.791 Ra=  0.498 Rb=  0.124 T=  0.237 S2Ext=  0.859 S2=  1.650
 Ground to excited state transition densities written to RWF  633
 Ground to excited state transition electric dipole moments (Au):
       state          X           Y           Z        Dip. S.      Osc.
         1         1.4693     -0.0078     -0.0617      2.1626      0.1482
         2        -0.3559     -0.0163     -0.1086      0.1387      0.0114
         3         0.0312      0.2514      0.0039      0.0642      0.0055
         4        -0.1681     -0.0526      0.0012      0.0310      0.0029
         5         2.0760      0.0282     -0.0547      4.3134      0.4243
         6         0.2030     -0.4550      0.1494      0.2706      0.0286
         7        -0.0004     -0.2973     -0.2079      0.1316      0.0142
         8        -0.1274      0.1283      0.0118      0.0328      0.0037
         9         0.9864      0.0911      0.0114      0.9814      0.1105
        10         0.2757      0.8094     -0.0645      0.7354      0.0947
        11         0.2357      0.0662     -0.0934      0.0687      0.0090
        12         0.0492     -0.1409     -0.0329      0.0234      0.0031
        13        -0.0564     -0.0590      0.0043      0.0067      0.0009
        14        -0.1428      0.1901     -0.0096      0.0566      0.0079
        15        -0.3791     -0.1980     -0.1798      0.2153      0.0308
        16         0.3695     -0.2679      0.0348      0.2095      0.0304
        17        -0.1313      0.2710     -0.1164      0.1042      0.0153
        18         0.1510      0.1102      0.0169      0.0352      0.0053
        19        -0.2988      0.0139      0.0292      0.0903      0.0139
        20        -0.3030      0.4321      0.1858      0.3130      0.0485
        21        -0.2992     -0.5101      0.1015      0.3600      0.0563
        22         0.3690     -0.0143      0.0877      0.1440      0.0227
        23        -1.8052     -0.0058     -0.0560      3.2619      0.5202
        24         0.1866      0.0199      0.0240      0.0358      0.0057
        25         0.1699      0.0249      0.0902      0.0376      0.0060
        26        -0.1665     -0.1806     -0.0139      0.0605      0.0098
        27        -0.1837     -0.0432      0.0575      0.0389      0.0066
        28        -0.2337      0.1257     -0.0828      0.0773      0.0131
        29         0.5414      0.1855      0.4801      0.5580      0.0953
        30        -0.3653     -0.9580     -0.5151      1.3165      0.2270
        31        -0.4028      1.6133     -0.3155      2.8646      0.4954
        32         0.4667      0.5463      0.4254      0.6973      0.1216
        33         0.3994     -0.9590      0.1591      1.1045      0.1935
        34         1.5418      0.0887     -0.1128      2.3979      0.4265
        35        -0.0226      0.0476      0.0355      0.0040      0.0007
        36        -0.2432      0.0535     -0.0002      0.0620      0.0112
        37         0.0685      0.1213     -0.0337      0.0205      0.0038
        38        -0.0878      0.0432      0.0640      0.0137      0.0025
        39        -0.0160     -0.0329     -0.0124      0.0015      0.0003
        40         0.0076      0.0124     -0.0135      0.0004      0.0001
        41         0.2252      0.1887      0.0314      0.0873      0.0163
        42         0.1355     -0.1909     -0.0676      0.0594      0.0111
        43         0.0971     -0.0075      0.0750      0.0151      0.0028
        44        -0.0213      0.1366     -0.0292      0.0200      0.0038
        45         0.1452     -0.1387      0.2365      0.0962      0.0182
        46        -0.1042     -0.0775     -0.1407      0.0367      0.0070
        47         0.0528     -0.0109      0.0100      0.0030      0.0006
        48         0.0799     -0.1497     -0.0120      0.0289      0.0055
        49        -0.0863     -0.1820     -0.1322      0.0580      0.0112
        50        -0.0014     -0.0632     -0.1238      0.0193      0.0037
        51        -0.0020     -0.0935      0.0286      0.0096      0.0019
        52        -0.0057      0.0112     -0.0525      0.0029      0.0006
        53         0.0216     -0.1582     -0.0756      0.0312      0.0061
        54        -0.0448     -0.0928      0.0211      0.0111      0.0022
        55        -0.0339      0.2766     -0.0785      0.0838      0.0163
        56        -0.1716     -0.0852     -0.0681      0.0413      0.0081
        57         0.1964      0.0245      0.0464      0.0413      0.0082
        58        -0.0040     -0.0526      0.0175      0.0031      0.0006
        59        -0.0040     -0.0343      0.0040      0.0012      0.0002
        60         0.1471      0.1725     -0.0164      0.0517      0.0103
 Ground to excited state transition velocity dipole moments (Au):
       state          X           Y           Z        Dip. S.      Osc.
         1        -0.1520      0.0008      0.0061      0.0232      0.1502
         2         0.0437      0.0018      0.0137      0.0021      0.0114
         3        -0.0044     -0.0327     -0.0002      0.0011      0.0057
         4         0.0232      0.0066     -0.0001      0.0006      0.0028
         5        -0.3058     -0.0041      0.0074      0.0936      0.4229
         6        -0.0324      0.0732     -0.0242      0.0070      0.0295
         7         0.0004      0.0485      0.0340      0.0035      0.0144
         8         0.0212     -0.0221     -0.0019      0.0009      0.0037
         9        -0.1660     -0.0155     -0.0022      0.0278      0.1098
        10        -0.0535     -0.1556      0.0133      0.0273      0.0941
        11        -0.0459     -0.0104      0.0233      0.0028      0.0094
        12        -0.0095      0.0297      0.0087      0.0010      0.0035
        13         0.0113      0.0126     -0.0007      0.0003      0.0009
        14         0.0294     -0.0391      0.0023      0.0024      0.0077
        15         0.0810      0.0425      0.0389      0.0099      0.0307
        16        -0.0797      0.0583     -0.0079      0.0098      0.0301
        17         0.0289     -0.0601      0.0255      0.0051      0.0154
        18        -0.0341     -0.0251     -0.0042      0.0018      0.0054
        19         0.0678     -0.0019     -0.0048      0.0046      0.0133
        20         0.0698     -0.1009     -0.0435      0.0169      0.0486
        21         0.0695      0.1204     -0.0243      0.0199      0.0566
        22        -0.0873      0.0026     -0.0210      0.0081      0.0228
        23         0.4319      0.0011      0.0134      0.1867      0.5204
        24        -0.0454     -0.0049     -0.0067      0.0021      0.0059
        25        -0.0413     -0.0056     -0.0214      0.0022      0.0061
        26         0.0404      0.0444      0.0038      0.0036      0.0099
        27         0.0466      0.0107     -0.0152      0.0025      0.0066
        28         0.0605     -0.0305      0.0225      0.0051      0.0133
        29        -0.1381     -0.0474     -0.1231      0.0365      0.0949
        30         0.0946      0.2470      0.1326      0.0875      0.2257
        31         0.1046     -0.4187      0.0813      0.1928      0.4955
        32        -0.1221     -0.1429     -0.1106      0.0476      0.1212
        33        -0.1047      0.2512     -0.0417      0.0758      0.1923
        34        -0.4120     -0.0239      0.0308      0.1713      0.4280
        35         0.0055     -0.0128     -0.0089      0.0003      0.0007
        36         0.0659     -0.0138      0.0005      0.0045      0.0112
        37        -0.0192     -0.0312      0.0104      0.0014      0.0035
        38         0.0241     -0.0132     -0.0205      0.0012      0.0028
        39         0.0045      0.0088      0.0037      0.0001      0.0003
        40        -0.0021     -0.0020      0.0049      0.0000      0.0001
        41        -0.0625     -0.0528     -0.0086      0.0068      0.0161
        42        -0.0371      0.0536      0.0182      0.0046      0.0109
        43        -0.0280      0.0027     -0.0203      0.0012      0.0028
        44         0.0066     -0.0386      0.0077      0.0016      0.0037
        45        -0.0418      0.0380     -0.0642      0.0073      0.0171
        46         0.0301      0.0224      0.0392      0.0029      0.0069
        47        -0.0147      0.0024     -0.0031      0.0002      0.0005
        48        -0.0230      0.0423      0.0032      0.0023      0.0054
        49         0.0245      0.0522      0.0366      0.0047      0.0108
        50         0.0009      0.0183      0.0338      0.0015      0.0034
        51         0.0005      0.0266     -0.0082      0.0008      0.0018
        52         0.0018     -0.0029      0.0144      0.0002      0.0005
        53        -0.0063      0.0462      0.0210      0.0026      0.0060
        54         0.0131      0.0259     -0.0056      0.0009      0.0020
        55         0.0101     -0.0805      0.0211      0.0070      0.0160
        56         0.0502      0.0250      0.0201      0.0036      0.0080
        57        -0.0585     -0.0083     -0.0140      0.0037      0.0083
        58         0.0010      0.0164     -0.0049      0.0003      0.0007
        59         0.0018      0.0105     -0.0008      0.0001      0.0003
        60        -0.0438     -0.0509      0.0041      0.0045      0.0101
 Ground to excited state transition magnetic dipole moments (Au):
       state          X           Y           Z
         1        -0.0074      0.0088      0.5124
         2        -0.1191     -0.0366      0.9583
         3         0.0401      0.3499      0.0562
         4         0.0029      0.0309      0.0052
         5         0.0476      0.0254      0.5061
         6         0.0349     -0.3452     -0.7290
         7        -0.0888     -0.2504      0.8059
         8         0.0141      0.0810     -0.0603
         9         0.0486      0.0706      0.0828
        10         0.0373     -0.0011      0.1176
        11         0.2918     -0.0861     -0.0203
        12         0.1166     -0.0672      0.0043
        13         0.0048     -0.0393     -0.0685
        14        -0.0161     -0.0250     -0.0300
        15        -0.0088     -0.1490      0.4593
        16         0.0086     -0.0952     -0.0914
        17        -0.0004      0.1601      0.4660
        18        -0.0229     -0.1348      0.0453
        19         0.2486     -0.1215      0.0655
        20         0.0602      0.2372     -0.6173
        21        -0.0023     -0.2061     -0.3443
        22         0.0050      0.2239     -0.0662
        23        -0.0701     -0.0356     -0.2976
        24        -0.0607      0.1502     -0.0187
        25        -0.1196     -0.1877     -0.1997
        26         0.0380      0.1498     -0.0320
        27         0.1121     -0.0048     -0.1058
        28         0.1916     -0.0334      0.3521
        29        -0.0449      0.2802     -1.5290
        30        -0.0321     -0.3613      1.7459
        31        -0.0167      0.5225      0.9793
        32         0.1205      0.6243     -0.9246
        33         0.0277     -0.8937     -0.7078
        34         0.0491      0.0956      1.0054
        35        -0.0883     -0.0900      0.0159
        36        -0.0431     -0.0365     -0.0240
        37        -0.0400     -0.2657      0.2209
        38         0.0250     -0.1049     -0.2470
        39        -0.0435      0.0789     -0.0266
        40        -0.0443     -0.0639     -0.0274
        41        -0.0664      0.1378      0.0109
        42         0.0027     -0.0431     -0.1587
        43        -0.0113     -0.0123      0.0729
        44        -0.0798      0.0813      0.0376
        45         0.1572      0.0270      0.0983
        46        -0.0371     -0.1189      0.0806
        47        -0.0509      0.1063     -0.0152
        48        -0.0294      0.0423      0.0747
        49        -0.0374      0.0516     -0.0418
        50         0.0422     -0.0856     -0.1413
        51         0.0204      0.0931     -0.0271
        52        -0.0306     -0.0660      0.0137
        53         0.0594     -0.2742     -0.0689
        54         0.0916      0.1950      0.0122
        55         0.0542      0.2068     -0.0731
        56         0.1434      0.1253     -0.0731
        57         0.0107      0.1514     -0.0706
        58        -0.0465     -0.0526     -0.0913
        59         0.0571     -0.0504      0.1141
        60        -0.0876      0.1464      0.0526
 Ground to excited state transition velocity quadrupole moments (Au):
       state          XX          YY          ZZ          XY          XZ          YZ
         1        -0.0124      0.0100     -0.0042      0.1605     -0.0080     -0.0638
         2         0.0016      0.0044      0.0022      0.1570      0.0125     -0.0133
         3        -0.1580      0.0245     -0.0041      0.0041     -0.0665      0.0063
         4        -0.1410      0.0532      0.0016     -0.0183     -0.0011      0.0066
         5         0.0274      0.0014     -0.0046      0.3229     -0.0204     -0.0761
         6         0.2998     -0.0351     -0.0019     -0.2624      0.1313      0.0145
         7         0.1433     -0.0069      0.0009      0.3280      0.1063     -0.0324
         8        -0.0226      0.0065      0.0264     -0.0489     -0.0303      0.0124
         9         0.0075      0.0016      0.0056      0.1396     -0.0345     -0.0313
        10         1.8679     -0.3422      0.0630      0.0664     -0.0086      0.0186
        11        -0.0169     -0.0592     -0.0130     -0.0085      0.0331      0.0986
        12        -0.2316     -0.0025     -0.0179      0.0009      0.0466      0.0322
        13         0.0098     -0.0306     -0.0060     -0.0463      0.0323      0.0119
        14         0.5167     -0.1296     -0.0020     -0.0469      0.0194      0.0127
        15         0.2235     -0.0376     -0.0016      0.2967      0.1116     -0.0187
        16         0.1724     -0.0390     -0.0122     -0.0166      0.0945     -0.0156
        17        -0.3593      0.0615      0.0082      0.3267     -0.1101     -0.0358
        18         0.2651      0.0297     -0.0211     -0.0086      0.0054     -0.0168
        19         0.1726     -0.0828      0.0007     -0.1897      0.0685      0.1585
        20         0.2348      0.0344      0.0161     -0.5844     -0.2012      0.0719
        21        -0.4662     -0.0494     -0.0132     -0.3921      0.1930      0.0252
        22        -1.2769      0.1300      0.0078      0.0170     -0.2199     -0.0123
        23        -0.1892      0.0326      0.0069     -0.4876      0.0174      0.0578
        24         0.4965     -0.1059      0.0096      0.0379     -0.0749     -0.0265
        25         0.2897     -0.0220     -0.0044     -0.1148      0.1123      0.0068
        26        -0.2114     -0.1364     -0.0176     -0.0071      0.0577      0.0268
        27        -0.0720      0.0382      0.0130     -0.0089      0.0327      0.1085
        28         0.5192     -0.0629     -0.0434      0.3172      0.0193      0.0716
        29        -0.1137      0.1847     -0.0397     -1.2348     -0.3315      0.1074
        30        -1.5844      0.0809     -0.0588      1.5129      0.3290     -0.1276
        31         3.4133      0.3636      0.0099      0.7849     -0.5991     -0.0849
        32        -1.7879      0.4084     -0.0018     -0.6740     -0.6206      0.0975
        33         4.1364     -0.3810     -0.0975     -0.5399      0.7988      0.0580
        34        -0.1599      0.0619      0.0163      1.6462     -0.1073      0.0387
        35         0.6044      0.0376     -0.0169     -0.1065     -0.0058     -0.0126
        36         0.1656     -0.0834      0.0058     -0.0272      0.0275      0.0578
        37         0.2524     -0.0054      0.0074      0.2041      0.2055     -0.0288
        38        -0.2018      0.1796      0.0972     -0.2894      0.0967      0.0111
        39         0.1602     -0.0001     -0.0276     -0.0599     -0.0743     -0.0162
        40         0.1278     -0.1318     -0.0310     -0.0773      0.0499     -0.0170
        41        -0.2859      0.1171      0.0206      0.2364     -0.1430     -0.0186
        42        -0.0511      0.0302      0.0028      0.1227      0.0548     -0.0185
        43         0.2589     -0.0532     -0.0146      0.0544      0.0052      0.0014
        44        -0.2397      0.0885     -0.0105      0.0613     -0.0748     -0.0196
        45        -0.3146      0.0298      0.0233      0.1721     -0.0025      0.0878
        46        -0.1830     -0.0602     -0.0061     -0.0134      0.1231     -0.0464
        47        -0.0663     -0.0332      0.0299     -0.0053     -0.0964      0.0037
        48        -0.1480     -0.1066      0.0440      0.0459     -0.0109     -0.0268
        49         0.1070     -0.2365      0.0155     -0.0124     -0.0215      0.0063
        50         0.3103      0.1896     -0.0383     -0.0824      0.0833     -0.0052
        51        -0.2217      0.0238      0.0116     -0.0335     -0.0589      0.0077
        52        -0.1460     -0.0116      0.0054     -0.0654      0.0359     -0.0307
        53         0.4550      0.1056     -0.0124     -0.0467      0.2268     -0.0086
        54         0.4431      0.2690     -0.0464      0.0777     -0.1572     -0.0044
        55         0.0141      0.0581      0.0246     -0.0802     -0.2015     -0.0135
        56        -0.1470     -0.0301      0.0079     -0.4180     -0.1228     -0.0370
        57        -0.1978      0.0613     -0.0263      0.0556     -0.0824      0.0542
        58         0.6235     -0.0410      0.0024     -0.0324     -0.0479     -0.0067
        59         0.5999     -0.0579     -0.0026      0.1113     -0.0120      0.0564
        60         0.6558     -0.0093     -0.0484      0.3868     -0.1947      0.0550
 <0|del|b> * <b|rxdel|0> + <0|del|b> * <b|delr+rdel|0>
 Rotatory Strengths (R) in cgs (10**-40 erg-esu-cm/Gauss)
       state          XX          YY          ZZ    R(velocity)    E-M Angle
         1        14.2776     44.6788    -29.4806      9.8253       86.85
         2        43.4129     14.7752    -13.3760     14.9374       79.84
         3       -37.5291     -0.5899    -25.9264    -21.3485      171.18
         4         0.5462      0.5539      0.2893      0.4631       69.01
         5        14.2147     24.1247    -90.6533    -17.4380       94.02
         6       -24.2592     21.6690    -36.4542    -13.0148       97.44
         7        46.4502     35.3798    -15.3132     22.1722       72.36
         8        -4.7576      1.2319     -2.2932     -1.9396      116.15
         9        -4.4604     -5.7720    -28.9608    -13.0644      118.09
        10         2.3485     -4.2353      0.9485     -0.3127       90.72
        11         1.0238    -32.7317    -14.9643    -15.5574      144.08
        12        -5.8844     -2.4517     -2.5012     -3.6124      134.75
        13        -1.4228      0.3539     -0.2927     -0.4539      107.04
        14         2.6326     -0.1020     -1.0649      0.4886       77.92
        15        30.2161      6.7635     -1.2916     11.8960       76.98
        16       -16.5975      1.8677     -3.1943     -5.9747      114.87
        17         6.3983      4.0330     -3.1931      2.4127       86.33
        18         5.2798      1.7676      5.4262      4.1579       49.54
        19         1.4713     40.2982      9.5000     17.0898       29.85
        20        12.2515     16.2045     -6.7826      7.2245       85.27
        21       -45.4836      0.6583     -5.2566    -16.6940      107.06
        22         3.2492      3.5675     -2.2376      1.5264       85.82
        23       -15.6291     -4.0843    -81.6402    -33.7845      104.94
        24        -1.8190      6.3733      1.7387      2.0976       73.47
        25        12.3465      9.5002      8.2722     10.0396       42.88
        26         5.7067      3.6576     13.9925      7.7856       31.84
        27         1.8746     16.3945      0.6522      6.3071       28.76
        28        23.0980     23.1665     10.6564     18.9736       44.36
        29       429.4185     38.0747     32.3923    166.6285       52.42
        30       357.8491     21.5954      1.4303    126.9583       74.69
        31      -444.4363      7.0475     53.4394   -127.9831      106.80
        32        -1.4823      1.4521     -4.5173     -1.5159       90.39
        33      -502.1666     -2.6419    -27.8044   -177.5376      129.07
        34       101.7265    -74.0800     -5.3421      7.4348       88.85
        35         2.4609     -2.1464      1.0609      0.4585       75.50
        36         1.1252      1.2663     -8.5138     -2.0408      124.60
        37        24.5894      1.9233      2.6880      9.7336       30.95
        38        17.5171      0.0035      0.5699      6.0301       40.33
        39         1.3179     -0.1897     -0.1074      0.3402       66.29
        40        -0.3669      0.4714      0.1068      0.0704       90.00
        41       -21.4288      9.1698      4.1175     -2.7139      104.78
        42        -7.4328     -5.7181     -0.1997     -4.4502      118.41
        43        -3.2986     -0.1250      0.4205     -1.0010      117.55
        44        -6.5490     -1.0388     -0.8044     -2.7974      134.84
        45       -20.1997     -6.8451     -2.4523     -9.8323      137.75
        46        -3.4398      1.4546      0.4634     -0.5072       94.38
        47         0.6717      0.8938      1.0218      0.8625       54.58
        48         3.2499      1.7083      1.7123      2.2235       51.83
        49         2.2447     -2.2588      0.6091      0.1983       87.33
        50       -13.0325     -2.3968      0.0006     -5.1429      164.09
        51         5.5267     -0.0450      1.1141      2.1986       10.80
        52        -0.5486      1.2573      0.1069      0.2719       72.25
        53       -31.0403     -0.9545     -3.1787    -11.7245      168.74
        54        10.4337      1.8308      2.7126      4.9924       14.29
        55       -43.6609      0.6799      0.3063    -14.2249      158.65
        56        -4.3970     14.7024     10.9209      7.0754       43.18
        57        -2.0708     -2.4216      2.3514     -0.7137       95.06
        58         0.6314      0.2831     -2.0068     -0.3641      103.45
        59        -0.6862      0.2359     -0.7811     -0.4105      110.62
        60       -18.4102      0.0669     10.2829     -2.6868      106.48
 1/2[<0|r|b>*<b|rxdel|0> + (<0|rxdel|b>*<b|r|0>)*]
 Rotatory Strengths (R) in cgs (10**-40 erg-esu-cm/Gauss)
       state          XX          YY          ZZ     R(length)
         1         7.7025      0.0487     22.3485     10.0332
         2       -29.9673     -0.4228     73.5914     14.4004
         3        -0.8844    -62.1982     -0.1533    -21.0787
         4         0.3479      1.1486     -0.0043      0.4974
         5       -69.8360     -0.5056     19.5621    -16.9265
         6        -5.0084   -111.0811     77.0200    -13.0232
         7        -0.0259    -52.6440    118.4979     21.9427
         8         1.2715     -7.3550      0.5039     -1.8599
         9       -33.9243     -4.5461     -0.6643    -13.0449
        10        -7.2638      0.6438      5.3690     -0.4170
        11       -48.6385      4.0315     -1.3401    -15.3157
        12        -4.0582     -6.6951      0.0989     -3.5514
        13         0.1907     -1.6412      0.2064     -0.4147
        14        -1.6272      3.3593     -0.2041      0.5093
        15        -2.3505    -20.8605     58.3954     11.7281
        16        -2.2405    -18.0355      2.2479     -6.0094
        17        -0.0379    -30.6862     38.3632      2.5464
        18         2.4456     10.5041     -0.5405      4.1364
        19        52.5429      1.1931     -1.3521     17.4613
        20        12.8969    -72.4865     81.0972      7.1692
        21        -0.4791    -74.3457     24.7113    -16.7045
        22        -1.3007      2.2631      4.1094      1.6906
        23       -89.4391     -0.1466    -11.7867    -33.7908
        24         8.0152     -2.1090      0.3186      2.0749
        25        14.3631      3.3074     12.7284     10.1330
        26         4.4757     19.1269     -0.3142      7.7628
        27        14.5657     -0.1480      4.3034      6.2404
        28        31.6553      2.9638     20.6183     18.4125
        29        17.2090    -36.7569    519.0930    166.5150
        30        -8.3039   -244.7715    635.9784    127.6343
        31        -4.7609   -596.0613    218.4697   -127.4509
        32       -39.7819   -241.1971    278.1409     -0.9460
        33        -7.8097   -606.0977     79.6366   -178.0903
        34       -53.5748     -5.9986     80.1852      6.8706
        35        -1.4085      3.0298     -0.4005      0.4069
        36        -7.4108      1.3800     -0.0034     -2.0114
        37         1.9388     22.7923      5.2603      9.9971
        38         1.5517      3.2010     11.1860      5.3129
        39        -0.4917      1.8358     -0.2339      0.3701
        40         0.2385      0.5619     -0.2612      0.1797
        41        10.5687    -18.3915     -0.2418     -2.6882
        42        -0.2598     -5.8138     -7.5854     -4.5530
        43         0.7753     -0.0655     -3.8635     -1.0512
        44        -1.1995     -7.8538      0.7744     -2.7596
        45       -16.1432      2.6458    -16.4436     -9.9803
        46        -2.7332     -6.5124      8.0177     -0.4093
        47         1.8997      0.8180      0.1071      0.9416
        48         1.6639      4.4818      0.6338      2.2598
        49        -2.2837      6.6414     -3.9126      0.1484
        50         0.0424     -3.8242    -12.3707     -5.3841
        51         0.0286      6.1548      0.5486      2.2440
        52        -0.1226      0.5227      0.5083      0.3028
        53        -0.9090    -30.6739     -3.6834    -11.7554
        54         2.9022     12.7997     -0.1814      5.1735
        55         1.3014    -40.4509     -4.0569    -14.4022
        56        17.3962      7.5485     -3.5183      7.1422
        57        -1.4883     -2.6220      2.3166     -0.5979
        58        -0.1315     -1.9550      1.1305     -0.3187
        59         0.1619     -1.2253     -0.3234     -0.4623
        60         9.1135    -17.8674      0.6080     -2.7153
  1/2[<0|del|b>*<b|r|0> + (<0|r|b>*<b|del|0>)*] (Au)
       state          X           Y           Z        Dip. S.   Osc.(frdel)
         1        -0.2234     -0.0000     -0.0004      0.2238      0.1492
         2        -0.0156     -0.0000     -0.0015      0.0171      0.0114
         3        -0.0001     -0.0082     -0.0000      0.0084      0.0056
         4        -0.0039     -0.0003     -0.0000      0.0043      0.0028
         5        -0.6349     -0.0001     -0.0004      0.6354      0.4236
         6        -0.0066     -0.0333     -0.0036      0.0435      0.0290
         7        -0.0000     -0.0144     -0.0071      0.0215      0.0143
         8        -0.0027     -0.0028     -0.0000      0.0056      0.0037
         9        -0.1638     -0.0014     -0.0000      0.1652      0.1101
        10        -0.0148     -0.1260     -0.0009      0.1416      0.0944
        11        -0.0108     -0.0007     -0.0022      0.0137      0.0091
        12        -0.0005     -0.0042     -0.0003      0.0049      0.0033
        13        -0.0006     -0.0007     -0.0000      0.0014      0.0009
        14        -0.0042     -0.0074     -0.0000      0.0117      0.0078
        15        -0.0307     -0.0084     -0.0070      0.0461      0.0308
        16        -0.0295     -0.0156     -0.0003      0.0453      0.0302
        17        -0.0038     -0.0163     -0.0030      0.0231      0.0154
        18        -0.0051     -0.0028     -0.0001      0.0080      0.0053
        19        -0.0203     -0.0000     -0.0001      0.0204      0.0136
        20        -0.0212     -0.0436     -0.0081      0.0728      0.0485
        21        -0.0208     -0.0614     -0.0025      0.0847      0.0565
        22        -0.0322     -0.0000     -0.0018      0.0341      0.0227
        23        -0.7797     -0.0000     -0.0008      0.7804      0.5203
        24        -0.0085     -0.0001     -0.0002      0.0087      0.0058
        25        -0.0070     -0.0001     -0.0019      0.0091      0.0061
        26        -0.0067     -0.0080     -0.0001      0.0148      0.0099
        27        -0.0086     -0.0005     -0.0009      0.0099      0.0066
        28        -0.0141     -0.0038     -0.0019      0.0198      0.0132
        29        -0.0748     -0.0088     -0.0591      0.1427      0.0951
        30        -0.0346     -0.2366     -0.0683      0.3395      0.2263
        31        -0.0421     -0.6754     -0.0256      0.7432      0.4955
        32        -0.0570     -0.0780     -0.0470      0.1821      0.1214
        33        -0.0418     -0.2409     -0.0066      0.2893      0.1929
        34        -0.6353     -0.0021     -0.0035      0.6409      0.4273
        35        -0.0001     -0.0006     -0.0003      0.0010      0.0007
        36        -0.0160     -0.0007     -0.0000      0.0168      0.0112
        37        -0.0013     -0.0038     -0.0004      0.0054      0.0036
        38        -0.0021     -0.0006     -0.0013      0.0040      0.0027
        39        -0.0001     -0.0003     -0.0000      0.0004      0.0003
        40        -0.0000     -0.0000     -0.0001      0.0001      0.0001
        41        -0.0141     -0.0100     -0.0003      0.0243      0.0162
        42        -0.0050     -0.0102     -0.0012      0.0165      0.0110
        43        -0.0027     -0.0000     -0.0015      0.0043      0.0028
        44        -0.0001     -0.0053     -0.0002      0.0056      0.0038
        45        -0.0061     -0.0053     -0.0152      0.0265      0.0177
        46        -0.0031     -0.0017     -0.0055      0.0104      0.0069
        47        -0.0008     -0.0000     -0.0000      0.0008      0.0006
        48        -0.0018     -0.0063     -0.0000      0.0082      0.0055
        49        -0.0021     -0.0095     -0.0048      0.0165      0.0110
        50        -0.0000     -0.0012     -0.0042      0.0053      0.0036
        51        -0.0000     -0.0025     -0.0002      0.0027      0.0018
        52        -0.0000     -0.0000     -0.0008      0.0008      0.0005
        53        -0.0001     -0.0073     -0.0016      0.0090      0.0060
        54        -0.0006     -0.0024     -0.0001      0.0031      0.0021
        55        -0.0003     -0.0223     -0.0017      0.0243      0.0162
        56        -0.0086     -0.0021     -0.0014      0.0121      0.0081
        57        -0.0115     -0.0002     -0.0007      0.0124      0.0082
        58        -0.0000     -0.0009     -0.0001      0.0010      0.0006
        59        -0.0000     -0.0004     -0.0000      0.0004      0.0002
        60        -0.0064     -0.0088     -0.0001      0.0153      0.0102

 Excitation energies and oscillator strengths:
 
[...]
     3  C   -0.005049   0.371348  -0.104661   0.030234  -0.000890   0.000139
     4  C   -0.083245   0.048952   0.010042  -0.005581  -0.000108   0.000037
     5  C    0.015810  -0.073920  -0.000471   0.000473   0.000009  -0.000002
     6  C    0.402415   0.031603  -0.000193  -0.000108  -0.000004   0.000001
     7  C    4.977485   0.427027  -0.001672  -0.000324   0.000024  -0.000010
     8  C    0.427027   5.223010  -0.006770  -0.000506   0.000132  -0.000183
     9  C   -0.001672  -0.006770   5.230571   0.243368  -0.042034  -0.064269
    10  C   -0.000324  -0.000506   0.243368   5.344675   0.442855   0.011719
    11  C    0.000024   0.000132  -0.042034   0.442855   4.972715   0.434165
    12  C   -0.000010  -0.000183  -0.064269   0.011719   0.434165   4.991548
    13  C   -0.000004   0.001579  -0.036040  -0.047296  -0.007447   0.428058
    14  C    0.003142   0.013252   0.439726  -0.029658  -0.042025   0.008251
    15  H    0.000089  -0.000862   0.018315  -0.004064   0.000181  -0.000328
    16  H   -0.004061   0.011418   0.000676  -0.000542  -0.000009   0.000000
    17  H    0.012136  -0.004595   0.000021   0.000003   0.000000  -0.000000
    18  H   -0.057803   0.011800  -0.000007  -0.000000  -0.000000  -0.000000
    19  H    0.452546  -0.058077   0.000028   0.000006  -0.000000   0.000001
    20  H   -0.032103   0.437824   0.003279   0.001117  -0.000036  -0.000125
    21  H   -0.000010  -0.000074  -0.085303   0.445391  -0.010381   0.006759
    22  H    0.000000   0.000001   0.014107  -0.056629   0.450742  -0.054483
    23  H    0.000000   0.000005  -0.003465   0.012445  -0.058132   0.455012
    24  H    0.000001   0.000040   0.012423  -0.004210   0.011302  -0.055853
    25  H    0.000428  -0.004979  -0.056609   0.006334  -0.002057   0.006992
              13         14         15         16         17         18
     1  O   -0.000405   0.006294   0.306007   0.017837  -0.000176   0.000001
     2  C    0.001922  -0.083466  -0.047461  -0.010558  -0.000281   0.000112
     3  C    0.001313  -0.018322   0.008069  -0.067495   0.014942  -0.003916
     4  C    0.000010   0.001772  -0.000940   0.456382  -0.064042   0.011795
     5  C   -0.000022  -0.000259  -0.000061  -0.049788   0.459378  -0.058179
     6  C    0.000016  -0.000023  -0.000005   0.010883  -0.058555   0.455832
     7  C   -0.000004   0.003142   0.000089  -0.004061   0.012136  -0.057803
     8  C    0.001579   0.013252  -0.000862   0.011418  -0.004595   0.011800
     9  C   -0.036040   0.439726   0.018315   0.000676   0.000021  -0.000007
    10  C   -0.047296  -0.029658  -0.004064  -0.000542   0.000003  -0.000000
    11  C   -0.007447  -0.042025   0.000181  -0.000009   0.000000  -0.000000
    12  C    0.428058   0.008251  -0.000328   0.000000  -0.000000  -0.000000
    13  C    4.948723   0.448173  -0.000268   0.000007  -0.000000   0.000000
    14  C    0.448173   5.201218   0.002599   0.000055  -0.000002   0.000004
    15  H   -0.000268   0.002599   0.363970  -0.000114  -0.000001   0.000000
    16  H    0.000007   0.000055  -0.000114   0.497291  -0.007115  -0.000040
    17  H   -0.000000  -0.000002  -0.000001  -0.007115   0.513569  -0.006759
    18  H    0.000000   0.000004   0.000000  -0.000040  -0.006759   0.509936
    19  H   -0.000003   0.000059  -0.000000   0.000016  -0.000057  -0.006513
    20  H    0.000538  -0.006231  -0.000057  -0.000049   0.000025  -0.000071
    21  H   -0.000474   0.002936  -0.004509  -0.000066   0.000000  -0.000000
    22  H    0.010361  -0.003527   0.000077   0.000000  -0.000000   0.000000
    23  H   -0.057749   0.011384   0.000000   0.000000   0.000000  -0.000000
    24  H    0.452702  -0.057429   0.000001  -0.000000   0.000000   0.000000
    25  H   -0.032988   0.443118   0.000046  -0.000013   0.000000  -0.000000
              19         20         21         22         23         24
     1  O    0.000003  -0.000117   0.011861  -0.000018  -0.000001   0.000006
     2  C   -0.000366  -0.007508  -0.011487  -0.000124   0.000127  -0.000057
     3  C    0.012531  -0.049301   0.001981   0.000016  -0.000009   0.000037
     4  C   -0.003848   0.005949  -0.000226   0.000000  -0.000000  -0.000004
     5  C    0.010794  -0.001995   0.000029  -0.000000  -0.000000   0.000000
     6  C   -0.055263   0.006759  -0.000005   0.000000  -0.000000  -0.000000
     7  C    0.452546  -0.032103  -0.000010   0.000000   0.000000   0.000001
     8  C   -0.058077   0.437824  -0.000074   0.000001   0.000005   0.000040
     9  C    0.000028   0.003279  -0.085303   0.014107  -0.003465   0.012423
    10  C    0.000006   0.001117   0.445391  -0.056629   0.012445  -0.004210
    11  C   -0.000000  -0.000036  -0.010381   0.450742  -0.058132   0.011302
    12  C    0.000001  -0.000125   0.006759  -0.054483   0.455012  -0.055853
    13  C   -0.000003   0.000538  -0.000474   0.010361  -0.057749   0.452702
    14  C    0.000059  -0.006231   0.002936  -0.003527   0.011384  -0.057429
    15  H   -0.000000  -0.000057  -0.004509   0.000077   0.000000   0.000001
    16  H    0.000016  -0.000049  -0.000066   0.000000   0.000000  -0.000000
    17  H   -0.000057   0.000025   0.000000  -0.000000   0.000000   0.000000
    18  H   -0.006513  -0.000071  -0.000000   0.000000  -0.000000   0.000000
    19  H    0.511678  -0.005862   0.000000   0.000000   0.000000  -0.000000
    20  H   -0.005862   0.473662   0.000068  -0.000002  -0.000000   0.000066
    21  H    0.000000   0.000068   0.487619  -0.006186  -0.000101   0.000029
    22  H    0.000000  -0.000002  -0.006186   0.507600  -0.006580  -0.000060
    23  H    0.000000  -0.000000  -0.000101  -0.006580   0.507664  -0.006613
    24  H   -0.000000   0.000066   0.000029  -0.000060  -0.006613   0.508788
    25  H    0.000066  -0.006141  -0.000066   0.000020  -0.000062  -0.005911
              25
     1  O   -0.000080
     2  C   -0.000652
     3  C    0.001919
     4  C   -0.000280
     5  C    0.000130
     6  C   -0.000169
     7  C    0.000428
     8  C   -0.004979
     9  C   -0.056609
    10  C    0.006334
    11  C   -0.002057
    12  C    0.006992
    13  C   -0.032988
    14  C    0.443118
    15  H    0.000046
    16  H   -0.000013
    17  H    0.000000
    18  H   -0.000000
    19  H    0.000066
    20  H   -0.006141
    21  H   -0.000066
    22  H    0.000020
    23  H   -0.000062
    24  H   -0.005911
    25  H    0.468997
          Atomic-Atomic Spin Densities.
               1          2          3          4          5          6
     1  O    0.173143  -0.096843  -0.009149   0.008041  -0.000217   0.000018
     2  C   -0.096843   0.738221  -0.001189  -0.006142  -0.001265   0.001584
     3  C   -0.009149  -0.001189  -0.065934  -0.048112   0.007985   0.001890
     4  C    0.008041  -0.006142  -0.048112   0.227109  -0.005362  -0.016649
     5  C   -0.000217  -0.001265   0.007985  -0.005362  -0.089136   0.003669
     6  C    0.000018   0.001584   0.001890  -0.016649   0.003669   0.191320
     7  C    0.000020   0.004831   0.000767   0.006151  -0.000208   0.003329
     8  C    0.000377  -0.037684   0.012214  -0.007708   0.005174  -0.019841
     9  C   -0.003400   0.040935  -0.012987   0.000373   0.000239   0.000075
    10  C    0.004260  -0.041746   0.024014  -0.003403   0.000133  -0.000035
    11  C    0.000077  -0.000059  -0.000552   0.000047  -0.000001  -0.000000
    12  C   -0.000001   0.001053   0.000208  -0.000012  -0.000000   0.000000
    13  C   -0.000029   0.001973  -0.000032  -0.000101   0.000006  -0.000002
    14  C    0.001893  -0.025411  -0.012409   0.003097  -0.000127   0.000007
    15  H    0.000114  -0.006673  -0.006851   0.001401  -0.000057   0.000013
    16  H    0.001406   0.000066  -0.004933   0.001705   0.000442   0.000122
    17  H   -0.000011  -0.000053   0.000185  -0.000143   0.000383  -0.000168
    18  H   -0.000000  -0.000005   0.000160  -0.000436   0.001431  -0.001775
    19  H   -0.000000  -0.000074  -0.000089  -0.000087   0.000031  -0.000034
    20  H   -0.000002  -0.004100   0.002552  -0.001403   0.000355  -0.000317
    21  H    0.003668  -0.004070   0.001892  -0.000207   0.000007  -0.000003
    22  H   -0.000010   0.000007  -0.000009   0.000001  -0.000000   0.000000
    23  H    0.000000   0.000003  -0.000001   0.000000  -0.000000   0.000000
    24  H    0.000000   0.000005  -0.000019   0.000002  -0.000000  -0.000000
    25  H    0.000035  -0.001761   0.000180   0.000373  -0.000044  -0.000000
               7          8          9         10         11         12
     1  O    0.000020   0.000377  -0.003400   0.004260   0.000077  -0.000001
     2  C    0.004831  -0.037684   0.040935  -0.041746  -0.000059   0.001053
     3  C    0.000767   0.012214  -0.012987   0.024014  -0.000552   0.000208
     4  C    0.006151  -0.007708   0.000373  -0.003403   0.000047  -0.000012
     5  C   -0.000208   0.005174   0.000239   0.000133  -0.000001  -0.000000
     6  C    0.003329  -0.019841   0.000075  -0.000035  -0.000000   0.000000
     7  C   -0.089667  -0.000502  -0.000676  -0.000336   0.000014   0.000001
     8  C   -0.000502   0.200425  -0.004469   0.001151   0.000113   0.000059
     9  C   -0.000676  -0.004469  -0.012677  -0.130697   0.017258  -0.007713
    10  C   -0.000336   0.001151  -0.130697   0.333424  -0.022704  -0.004757
    11  C    0.000014   0.000113   0.017258  -0.022704  -0.064808  -0.000652
    12  C    0.000001   0.000059  -0.007713  -0.004757  -0.000652   0.161721
    13  C    0.000035  -0.000248  -0.001206   0.010183  -0.002746   0.002264
    14  C   -0.000053  -0.001120   0.029379  -0.047111   0.007273  -0.016999
    15  H    0.000026  -0.000234   0.012839  -0.007479  -0.000186  -0.000278
    16  H    0.000249  -0.000910   0.000100  -0.000262   0.000000  -0.000001
    17  H   -0.000143   0.000154   0.000005   0.000001  -0.000000   0.000000
    18  H    0.001302  -0.000382  -0.000000   0.000000  -0.000000   0.000000
    19  H   -0.000422   0.000721   0.000013   0.000006  -0.000000  -0.000000
    20  H    0.000039   0.000318   0.000336   0.001660  -0.000114  -0.000053
    21  H   -0.000009   0.000164  -0.020108   0.013813   0.001271   0.001250
    22  H    0.000000  -0.000000   0.000868  -0.000441   0.000393  -0.000448
    23  H   -0.000000   0.000000   0.000189  -0.000437   0.001359  -0.001547
    24  H    0.000001   0.000025  -0.000132  -0.000196   0.000100   0.000082
    25  H   -0.000030   0.000246   0.001506  -0.000734   0.000124  -0.000165
              13         14         15         16         17         18
     1  O   -0.000029   0.001893   0.000114   0.001406  -0.000011  -0.000000
     2  C    0.001973  -0.025411  -0.006673   0.000066  -0.000053  -0.000005
     3  C   -0.000032  -0.012409  -0.006851  -0.004933   0.000185   0.000160
     4  C   -0.000101   0.003097   0.001401   0.001705  -0.000143  -0.000436
     5  C    0.000006  -0.000127  -0.000057   0.000442   0.000383   0.001431
     6  C   -0.000002   0.000007   0.000013   0.000122  -0.000168  -0.001775
     7  C    0.000035  -0.000053   0.000026   0.000249  -0.000143   0.001302
     8  C   -0.000248  -0.001120  -0.000234  -0.000910   0.000154  -0.000382
     9  C   -0.001206   0.029379   0.012839   0.000100   0.000005  -0.000000
    10  C    0.010183  -0.047111  -0.007479  -0.000262   0.000001   0.000000
    11  C   -0.002746   0.007273  -0.000186   0.000000  -0.000000  -0.000000
    12  C    0.002264  -0.016999  -0.000278  -0.000001   0.000000   0.000000
    13  C   -0.071975  -0.001231  -0.000097  -0.000002   0.000000  -0.000000
    14  C   -0.001231   0.184148   0.002406   0.000165  -0.000002   0.000000
    15  H   -0.000097   0.002406   0.010164   0.000476  -0.000002  -0.000000
    16  H   -0.000002   0.000165   0.000476  -0.005314  -0.000070  -0.000001
    17  H    0.000000  -0.000002  -0.000002  -0.000070   0.002992   0.000108
    18  H   -0.000000   0.000000  -0.000000  -0.000001   0.000108  -0.007665
    19  H    0.000000   0.000012  -0.000000  -0.000003  -0.000002   0.000111
    20  H    0.000053   0.000297  -0.000039  -0.000032   0.000003   0.000003
    21  H    0.000512  -0.002771  -0.003387  -0.000039   0.000000   0.000000
    22  H   -0.000165   0.000167   0.000034   0.000000  -0.000000  -0.000000
    23  H    0.000983  -0.000317   0.000001   0.000000  -0.000000  -0.000000
    24  H   -0.000456   0.000729   0.000001   0.000000  -0.000000  -0.000000
    25  H    0.000292  -0.000158   0.000013   0.000009  -0.000000   0.000000
              19         20         21         22         23         24
     1  O   -0.000000  -0.000002   0.003668  -0.000010   0.000000   0.000000
     2  C   -0.000074  -0.004100  -0.004070   0.000007   0.000003   0.000005
     3  C   -0.000089   0.002552   0.001892  -0.000009  -0.000001  -0.000019
     4  C   -0.000087  -0.001403  -0.000207   0.000001   0.000000   0.000002
     5  C    0.000031   0.000355   0.000007  -0.000000  -0.000000  -0.000000
     6  C   -0.000034  -0.000317  -0.000003   0.000000   0.000000  -0.000000
     7  C   -0.000422   0.000039  -0.000009   0.000000  -0.000000   0.000001
     8  C    0.000721   0.000318   0.000164  -0.000000   0.000000   0.000025
     9  C    0.000013   0.000336  -0.020108   0.000868   0.000189  -0.000132
    10  C    0.000006   0.001660   0.013813  -0.000441  -0.000437  -0.000196
    11  C   -0.000000  -0.000114   0.001271   0.000393   0.001359   0.000100
    12  C   -0.000000  -0.000053   0.001250  -0.000448  -0.001547   0.000082
    13  C    0.000000   0.000053   0.000512  -0.000165   0.000983  -0.000456
    14  C    0.000012   0.000297  -0.002771   0.000167  -0.000317   0.000729
    15  H   -0.000000  -0.000039  -0.003387   0.000034   0.000001   0.000001
    16  H   -0.000003  -0.000032  -0.000039   0.000000   0.000000   0.000000
    17  H   -0.000002   0.000003   0.000000  -0.000000  -0.000000  -0.000000
    18  H    0.000111   0.000003   0.000000  -0.000000  -0.000000  -0.000000
    19  H    0.002983   0.000113   0.000000  -0.000000  -0.000000  -0.000000
    20  H    0.000113  -0.005017   0.000054  -0.000001  -0.000000  -0.000012
    21  H    0.000000   0.000054   0.002043  -0.000303  -0.000007  -0.000004
    22  H   -0.000000  -0.000001  -0.000303   0.002588   0.000095  -0.000001
    23  H   -0.000000  -0.000000  -0.000007   0.000095  -0.006212   0.000098
    24  H   -0.000000  -0.000012  -0.000004  -0.000001   0.000098   0.002484
    25  H   -0.000006   0.000308  -0.000014   0.000001   0.000002   0.000061
              25
     1  O    0.000035
     2  C   -0.001761
     3  C    0.000180
     4  C    0.000373
     5  C   -0.000044
     6  C   -0.000000
     7  C   -0.000030
     8  C    0.000246
     9  C    0.001506
    10  C   -0.000734
    11  C    0.000124
    12  C   -0.000165
    13  C    0.000292
    14  C   -0.000158
    15  H    0.000013
    16  H    0.000009
    17  H   -0.000000
    18  H    0.000000
    19  H   -0.000006
    20  H    0.000308
    21  H   -0.000014
    22  H    0.000001
    23  H    0.000002
    24  H    0.000061
    25  H   -0.004644
 Mulliken charges and spin densities:
               1          2
     1  O   -0.447001   0.083390
     2  C    0.270045   0.561601
     3  C    0.162114  -0.110220
     4  C   -0.255856   0.158533
     5  C   -0.118163  -0.076563
     6  C   -0.174188   0.163204
     7  C   -0.116789  -0.075282
     8  C   -0.330549   0.148044
     9  C    0.154299  -0.089949
    10  C   -0.272054   0.128307
    11  C   -0.148038  -0.063794
    12  C   -0.164245   0.134012
    13  C   -0.110705  -0.061987
    14  C   -0.341039   0.121866
    15  H    0.359316   0.002206
    16  H    0.145286  -0.006825
    17  H    0.141510   0.003236
    18  H    0.143808  -0.007149
    19  H    0.142262   0.003273
    20  H    0.180312  -0.005000
    21  H    0.162214  -0.006247
    22  H    0.144684   0.002774
    23  H    0.146075  -0.005792
    24  H    0.144741   0.002768
    25  H    0.181959  -0.004405
 Sum of Mulliken charges =  -0.00000   1.00000
 Mulliken charges and spin densities with hydrogens summed into heavy atoms:
               1          2
     1  O   -0.087684   0.085595
     2  C    0.270045   0.561601
     3  C    0.162114  -0.110220
     4  C   -0.110570   0.151708
     5  C    0.023347  -0.073326
     6  C   -0.030380   0.156055
     7  C    0.025473  -0.072009
     8  C   -0.150236   0.143043
     9  C    0.154299  -0.089949
    10  C   -0.109840   0.122060
    11  C   -0.003354  -0.061020
    12  C   -0.018170   0.128220
    13  C    0.034036  -0.059220
    14  C   -0.159080   0.117460
 Electronic spatial extent (au):  <R**2>=           3139.9113
 Charge=             -0.0000 electrons
 Dipole moment (field-independent basis, Debye):
    X=              1.9661    Y=             -0.0787    Z=             -0.5806  Tot=              2.0516
 Quadrupole moment (field-independent basis, Debye-Ang):
   XX=            -70.0974   YY=            -72.8629   ZZ=            -85.5440
   XY=              3.6914   XZ=              1.6396   YZ=             -1.1724
 Traceless Quadrupole moment (field-independent basis, Debye-Ang):
   XX=              6.0707   YY=              3.3052   ZZ=             -9.3759
   XY=              3.6914   XZ=              1.6396   YZ=             -1.1724
 Octapole moment (field-independent basis, Debye-Ang**2):
  XXX=              7.5462  YYY=             10.3669  ZZZ=             -1.1146  XYY=             12.2980
  XXY=             -0.8939  XXZ=              2.3829  XZZ=              3.2599  YZZ=              4.7929
  YYZ=             -5.4176  XYZ=             13.7347
 Hexadecapole moment (field-independent basis, Debye-Ang**3):
 XXXX=          -2995.1423 YYYY=           -713.0339 ZZZZ=           -195.9410 XXXY=             -6.8834
 XXXZ=             61.3614 YYYX=             33.6707 YYYZ=            -14.3887 ZZZX=              3.4390
 ZZZY=              0.6215 XXYY=           -624.5191 XXZZ=           -643.1035 YYZZ=           -154.1342
 XXYZ=              2.4977 YYXZ=            -13.7560 ZZXY=              2.2289
 N-N= 7.914794629359D+02 E-N=-2.925524652379D+03  KE= 5.744502206503D+02
 Unable to Open any file for archive entry.
 1\1\GINC-NODEMASTER01\SP\UwB97XD TD-FC\def2TZVP\C13H11O1(2)\ROOT\15-Ma
 y-2025\0\\# td=(nstates=60) wb97xd/Def2TZVP scrf=(cpcm,solvent=n,n-DiM
 ethylFormamide) geom=AllCheck guess=read maxdisk=900GB integral(ultraf
 inegrid)\\rafradopt\\0,2\O,0,-0.047011397,-2.2769530518,0.0625789727\C
 ,0,-0.0031860904,-0.9188754121,0.0387041052\C,0,-1.2870750084,-0.28005
 71923,-0.0113918586\C,0,-2.4427879189,-0.9900409956,0.3722595675\C,0,-
 3.6914470736,-0.401013086,0.3133950183\C,0,-3.8373890244,0.9065583901,
 -0.1357053809\C,0,-2.7105506868,1.6151377077,-0.5385781662\C,0,-1.4574
 389276,1.0362969058,-0.4845295931\C,0,1.2910461042,-0.2766725604,0.027
 1181201\C,0,2.4106380325,-0.9446800892,-0.5019036231\C,0,3.6645841313,
 -0.36009714,-0.4839847508\C,0,3.8447818217,0.9035143873,0.0617161616\C
 ,0,2.7516241442,1.5742152367,0.599182042\C,0,1.4965654753,0.9969297975
 ,0.5877466417\H,0,0.7869381933,-2.6295133753,0.3864505576\H,0,-2.34286
 33287,-2.0056367141,0.7290747496\H,0,-4.5615625291,-0.9661173084,0.624
 2179585\H,0,-4.8169395498,1.3647018135,-0.1800664235\H,0,-2.8122785948
 ,2.6265993066,-0.9119170186\H,0,-0.6029996718,1.5952838773,-0.84033391
 46\H,0,2.2933662374,-1.9163582991,-0.9662938672\H,0,4.5059501359,-0.89
 2419612,-0.909585248\H,0,4.8261666402,1.3594696779,0.0736682948\H,0,2.
 8826470122,2.5520434593,1.0454593266\H,0,0.6690088729,1.5189292767,1.0
 482673282\\Version=ES64L-G16RevC.01\State=2-A\HF=-577.2142797\S2=0.790
 858\S2-1=0.\S2A=0.751457\RMSD=6.995e-10\PG=C01 [X(C13H11O1)]\\@
 The archive entry for this job was punched.


 THERE ARE PEOPLE SO ADDICTED TO EXAGERATING THEY
 CAN'T TELL THE TRUTH WITHOUT LYING. -- FORTUNE COOKIE
 Job cpu time:       1 days  1 hours 47 minutes 29.7 seconds.
 Elapsed time:       0 days  0 hours 55 minutes 30.9 seconds.
 File lengths (MBytes):  RWF=   4870 Int=      0 D2E=      0 Chk=    498 Scr=      1
 Normal termination of Gaussian 16 at Thu May 15 21:02:56 2025.
