 Entering Link 1 = C:\G09W\l1.exe PID=      9972.
  
 Copyright (c) 1988,1990,1992,1993,1995,1998,2003,2009,2013,
            Gaussian, Inc.  All Rights Reserved.
  
 This is part of the Gaussian(R) 09 program.  It is based on
 the Gaussian(R) 03 system (copyright 2003, Gaussian, Inc.),
 the Gaussian(R) 98 system (copyright 1998, Gaussian, Inc.),
 the Gaussian(R) 94 system (copyright 1995, Gaussian, Inc.),
 the Gaussian 92(TM) system (copyright 1992, Gaussian, Inc.),
 the Gaussian 90(TM) system (copyright 1990, Gaussian, Inc.),
 the Gaussian 88(TM) system (copyright 1988, Gaussian, Inc.),
 the Gaussian 86(TM) system (copyright 1986, Carnegie Mellon
 University), and the Gaussian 82(TM) system (copyright 1983,
 Carnegie Mellon University). Gaussian is a federally registered
 trademark of Gaussian, Inc.
  
 This software contains proprietary and confidential information,
 including trade secrets, belonging to Gaussian, Inc.
  
 This software is provided under written license and may be
 used, copied, transmitted, or stored only in accord with that
 written license.
  
 The following legend is applicable only to US Government
 contracts under FAR:
  
                    RESTRICTED RIGHTS LEGEND
  
 Use, reproduction and disclosure by the US Government is
 subject to restrictions as set forth in subparagraphs (a)
 and (c) of the Commercial Computer Software - Restricted
 Rights clause in FAR 52.227-19.
  
 Gaussian, Inc.
 340 Quinnipiac St., Bldg. 40, Wallingford CT 06492
  
  
 ---------------------------------------------------------------
 Warning -- This program may not be used in any manner that
 competes with the business of Gaussian, Inc. or will provide
 assistance to any competitor of Gaussian, Inc.  The licensee
 of this program is prohibited from giving any competitor of
 Gaussian, Inc. access to this program.  By using this program,
 the user acknowledges that Gaussian, Inc. is engaged in the
 business of creating and licensing software in the field of
 computational chemistry and represents and warrants to the
 licensee that it is not a competitor of Gaussian, Inc. and that
 it will not use this program in any manner prohibited above.
 ---------------------------------------------------------------
  

 Cite this work as:
 Gaussian 09, Revision D.01,
 M. J. Frisch, G. W. Trucks, H. B. Schlegel, G. E. Scuseria, 
 M. A. Robb, J. R. Cheeseman, G. Scalmani, V. Barone, B. Mennucci, 
 G. A. Petersson, H. Nakatsuji, M. Caricato, X. Li, H. P. Hratchian, 
 A. F. Izmaylov, J. Bloino, G. Zheng, J. L. Sonnenberg, M. Hada, 
 M. Ehara, K. Toyota, R. Fukuda, J. Hasegawa, M. Ishida, T. Nakajima, 
 Y. Honda, O. Kitao, H. Nakai, T. Vreven, J. A. Montgomery, Jr., 
 J. E. Peralta, F. Ogliaro, M. Bearpark, J. J. Heyd, E. Brothers, 
 K. N. Kudin, V. N. Staroverov, T. Keith, R. Kobayashi, J. Normand, 
 K. Raghavachari, A. Rendell, J. C. Burant, S. S. Iyengar, J. Tomasi, 
 M. Cossi, N. Rega, J. M. Millam, M. Klene, J. E. Knox, J. B. Cross, 
 V. Bakken, C. Adamo, J. Jaramillo, R. Gomperts, R. E. Stratmann, 
 O. Yazyev, A. J. Austin, R. Cammi, C. Pomelli, J. W. Ochterski, 
 R. L. Martin, K. Morokuma, V. G. Zakrzewski, G. A. Voth, 
 P. Salvador, J. J. Dannenberg, S. Dapprich, A. D. Daniels, 
 O. Farkas, J. B. Foresman, J. V. Ortiz, J. Cioslowski, 
 and D. J. Fox, Gaussian, Inc., Wallingford CT, 2013.
 
 ******************************************
 Gaussian 09:  EM64W-G09RevD.01 13-Apr-2013
                31-May-2024 
 ******************************************
 %nprocshared=15
 Will use up to   15 processors via shared memory.
 %mem=50GB
 %chk=D:\Yaroslav\pink-mystery\DE2\conf1\DE2_conf1_669kjm.chk
 ----------------------------------------------------------------------
 # td=(nstates=60) wb97xd/cc-pvdz scrf=(cpcm,solvent=n,n-DiMethylFormam
 ide) geom=AllCheck guess=read maxdisk=900GB integral(ultrafinegrid)
 ----------------------------------------------------------------------
 1/29=7,38=1/1;
 2/12=2,40=1/2;
 3/5=16,11=9,14=-4,16=1,25=1,30=1,70=2101,72=148,74=-58,75=-5,116=-2/1,2,8,3;
 4/5=1/1;
 5/5=2,38=6,53=148/2;
 8/6=1,10=1,108=60/1;
 9/41=60,42=1,70=2/14;
 6/7=2,8=2,9=2,10=2/1;
 99/5=1,9=1/99;
 Structure from the checkpoint file:  "D:\Yaroslav\pink-mystery\DE2\conf1\DE2_conf1_669kjm.chk"
 ---------
 DE2_conf1
 ---------
 Charge =  0 Multiplicity = 1
 Redundant internal coordinates found in file.
 O,0,2.4546524197,4.6231804927,-3.7021178067
 C,0,2.6225118794,4.4297574104,-2.3107626441
 C,0,4.0291088819,4.8925483454,-1.9014870874
 C,0,4.6262240799,5.9444016767,-2.6003878476
 C,0,5.8938443633,6.4004319426,-2.2447135521
 C,0,6.5773624824,5.8169728919,-1.1770586769
 C,0,5.9800162204,4.7772147769,-0.4661277322
 C,0,4.7139114129,4.3181279534,-0.8267495582
 C,0,1.608156549,5.3380283821,-1.5882993849
 C,0,0.4782302093,5.787766595,-2.2770783701
 C,0,-0.4775883481,6.5780609074,-1.6385886649
 C,0,-0.3100781231,6.9421603866,-0.303464865
 C,0,0.8294636845,6.5210098077,0.3822487229
 C,0,1.7827928251,5.7320786875,-0.2568519931
 C,0,2.4860589623,2.874328105,-2.0280107071
 O,0,2.1958383217,2.0891016438,-3.194583945
 C,0,1.7762914661,2.3690852254,-0.7938198895
 C,0,0.5560110304,2.9081836395,-0.3643682428
 C,0,-0.0625402239,2.4643128167,0.8018436044
 C,0,0.5265690875,1.465550685,1.5728759974
 C,0,1.6919725568,0.8594710026,1.1160761774
 C,0,2.2949164007,1.2764729827,-0.0737847918
 C,0,3.3676413419,0.4300555249,-0.6404592787
 C,0,3.9614707622,0.7292344673,-1.9594551509
 O,0,2.9774754487,-0.29208777,-1.8174527545
 C,0,3.5379207326,2.0124574167,-2.6682505659
 C,0,4.5688885086,2.5813622421,-3.5856206821
 C,0,5.7890600753,2.0467204255,-3.7308852424
 C,0,6.1963303518,0.8408426686,-3.0140133255
 C,0,5.3305273132,0.2127763388,-2.2104632377
 H,0,2.1189713421,3.7825896262,-4.0562622011
 H,0,4.0977344261,6.3940533499,-3.4414522943
 H,0,6.3522997254,7.2158866198,-2.8075238364
 H,0,7.5717674695,6.1717624035,-0.900531499
 H,0,6.5036069959,4.3117736193,0.3707929972
 H,0,4.2705736919,3.4936038721,-0.2642708917
 H,0,0.3452587998,5.5064817461,-3.3206247099
 H,0,-1.3578566018,6.9116155432,-2.1914386886
 H,0,-1.0578048961,7.5592661153,0.1978571005
 H,0,0.9791628805,6.8077259313,1.4247132362
 H,0,2.6623111005,5.4088469703,0.3005902033
 H,0,0.0636976476,3.6823387909,-0.9451190007
 H,0,-1.0098249505,2.9110650292,1.1072709321
 H,0,0.0605934469,1.1322090095,2.5013293041
 H,0,2.1279681546,0.0239239994,1.6676267689
 H,0,3.9572772528,-0.1560045619,0.0718392068
 H,0,4.2776883203,3.4502968934,-4.1693201342
 H,0,6.4921376354,2.5030817265,-4.4296250268
 H,0,7.1990700764,0.4411274035,-3.1713412311
 H,0,5.5832268099,-0.7197517584,-1.7026987398
 Recover connectivity data from disk.
                          Input orientation:                          
 ---------------------------------------------------------------------
 Center     Atomic      Atomic             Coordinates (Angstroms)
 Number     Number       Type             X           Y           Z
 ---------------------------------------------------------------------
      1          8           0        2.454652    4.623180   -3.702118
      2          6           0        2.622512    4.429757   -2.310763
      3          6           0        4.029109    4.892548   -1.901487
      4          6           0        4.626224    5.944402   -2.600388
      5          6           0        5.893844    6.400432   -2.244714
      6          6           0        6.577362    5.816973   -1.177059
      7          6           0        5.980016    4.777215   -0.466128
      8          6           0        4.713911    4.318128   -0.826750
      9          6           0        1.608157    5.338028   -1.588299
     10          6           0        0.478230    5.787767   -2.277078
     11          6           0       -0.477588    6.578061   -1.638589
     12          6           0       -0.310078    6.942160   -0.303465
     13          6           0        0.829464    6.521010    0.382249
     14          6           0        1.782793    5.732079   -0.256852
     15          6           0        2.486059    2.874328   -2.028011
     16          8           0        2.195838    2.089102   -3.194584
     17          6           0        1.776291    2.369085   -0.793820
     18          6           0        0.556011    2.908184   -0.364368
     19          6           0       -0.062540    2.464313    0.801844
     20          6           0        0.526569    1.465551    1.572876
     21          6           0        1.691973    0.859471    1.116076
     22          6           0        2.294916    1.276473   -0.073785
     23          6           0        3.367641    0.430056   -0.640459
     24          6           0        3.961471    0.729234   -1.959455
     25          8           0        2.977475   -0.292088   -1.817453
     26          6           0        3.537921    2.012457   -2.668251
     27          6           0        4.568889    2.581362   -3.585621
     28          6           0        5.789060    2.046720   -3.730885
     29          6           0        6.196330    0.840843   -3.014013
     30          6           0        5.330527    0.212776   -2.210463
     31          1           0        2.118971    3.782590   -4.056262
     32          1           0        4.097734    6.394053   -3.441452
     33          1           0        6.352300    7.215887   -2.807524
     34          1           0        7.571767    6.171762   -0.900531
     35          1           0        6.503607    4.311774    0.370793
     36          1           0        4.270574    3.493604   -0.264271
     37          1           0        0.345259    5.506482   -3.320625
     38          1           0       -1.357857    6.911616   -2.191439
     39          1           0       -1.057805    7.559266    0.197857
     40          1           0        0.979163    6.807726    1.424713
     41          1           0        2.662311    5.408847    0.300590
     42          1           0        0.063698    3.682339   -0.945119
     43          1           0       -1.009825    2.911065    1.107271
     44          1           0        0.060593    1.132209    2.501329
     45          1           0        2.127968    0.023924    1.667627
     46          1           0        3.957277   -0.156005    0.071839
     47          1           0        4.277688    3.450297   -4.169320
     48          1           0        6.492138    2.503082   -4.429625
     49          1           0        7.199070    0.441127   -3.171341
     50          1           0        5.583227   -0.719752   -1.702699
 ---------------------------------------------------------------------
                    Distance matrix (angstroms):
                    1          2          3          4          5
     1  O    0.000000
     2  C    1.414729   0.000000
     3  C    2.407020   1.536293   0.000000
     4  C    2.770408   2.528417   1.396927   0.000000
     5  C    4.136507   3.819625   2.422551   1.393316   0.000000
     6  C    4.979739   4.341716   2.805878   2.418480   1.395532
     7  C    4.787854   3.846588   2.424788   2.783908   2.409487
     8  C    3.669476   2.566848   1.397846   2.407955   2.781880
     9  C    2.386586   1.541371   2.481441   3.240485   4.463933
    10  C    2.700600   2.538359   3.681199   4.163522   5.450255
    11  C    4.083840   3.831142   4.818754   5.232159   6.402663
    12  C    4.957040   4.352183   5.057977   5.535202   6.523080
    13  C    4.788010   3.852359   4.255005   4.862508   5.706437
    14  C    3.681156   2.572881   2.907847   3.690846   4.615088
    15  C    2.421179   1.586798   2.543664   3.785931   4.908500
    16  O    2.597332   2.538082   3.590584   4.595996   5.758912
    17  C    3.741566   2.695102   3.559491   4.916166   5.942314
    18  C    4.205547   3.220879   4.285189   5.548427   6.650110
    19  C    5.593088   4.556402   5.472286   6.758011   7.762285
    20  C    6.443112   5.316215   6.006937   7.367727   8.230109
    21  C    6.161346   5.035481   5.552802   6.948270   7.723528
    22  C    4.938701   3.880025   4.407258   5.797265   6.627229
    23  C    5.271584   4.398039   4.684183   5.986098   6.678378
    24  C    4.524399   3.950962   4.164267   5.296287   5.998160
    25  O    5.290101   4.760796   5.290883   6.498089   7.312837
    26  C    3.009689   2.609427   3.020615   4.080343   4.998408
    27  C    2.941528   2.971567   2.910197   3.504855   4.258971
    28  C    4.213935   4.209827   3.813511   4.221627   4.601575
    29  C    5.364673   5.113419   4.727672   5.355617   5.620708
    30  C    5.472418   5.012618   4.867178   5.787885   6.213339
    31  H    0.971953   1.928509   3.086048   3.616534   4.938064
    32  H    2.429744   2.704293   2.151911   1.090357   2.158295
    33  H    4.765929   4.681945   3.408228   2.153814   1.091743
    34  H    6.035881   5.433090   3.897272   3.408435   2.162069
    35  H    5.751488   4.718852   3.409354   3.875301   3.402231
    36  H    4.048741   2.789376   2.166986   3.404459   3.873862
    37  H    2.318469   2.713860   3.995199   4.363162   5.722197
    38  H    4.696202   4.692248   5.760217   6.075522   7.269891
    39  H    6.013964   5.443503   6.115171   6.538054   7.458852
    40  H    5.764868   4.723252   4.902416   5.499802   6.146924
    41  H    4.084368   2.789151   2.642697   3.543931   4.231385
    42  H    3.768672   2.995187   4.254848   5.354763   6.562590
    43  H    6.169616   5.213756   6.194332   7.396818   8.430429
    44  H    7.510070   6.371301   7.019548   8.368375   9.181825
    45  H    7.077714   5.956805   6.329014   7.714226   8.375445
    46  H    6.272260   5.337378   5.420984   6.693523   7.218280
    47  H    2.217520   2.674544   2.699064   2.967083   3.875483
    48  H    4.617940   4.814111   4.262340   4.320929   4.507897
    49  H    6.346715   6.131448   5.610377   6.101766   6.170540
    50  H    6.506349   5.971015   5.826896   6.792101   7.147537
                    6          7          8          9         10
     6  C    0.000000
     7  C    1.394038   0.000000
     8  C    2.416961   1.394213   0.000000
     9  C    5.009143   4.548290   3.356467   0.000000
    10  C    6.197605   5.879660   4.712142   1.397646   0.000000
    11  C    7.110879   6.805760   5.719969   2.427044   1.394928
    12  C    7.033211   6.654227   5.692086   2.811345   2.418513
    13  C    5.997120   5.503522   4.626370   2.426699   2.780833
    14  C    4.882815   4.309553   3.303861   1.399473   2.405473
    15  C    5.110973   4.274131   2.913917   2.652146   3.547046
    16  O    6.096326   5.384276   4.112893   3.671654   4.179966
    17  C    5.923266   4.855695   3.525544   3.078001   3.946188
    18  C    6.736334   5.737897   4.414734   2.917047   3.457818
    19  C    7.697057   6.593160   5.376192   4.094173   4.562624
    20  C    7.944125   6.698115   5.606178   5.114582   5.788440
    21  C    7.328187   6.019917   4.986882   5.232413   6.105306
    22  C    6.338194   5.097949   3.958555   4.388807   5.339159
    23  C    6.293578   5.074711   4.118769   5.299282   6.303355
    24  C    5.774090   4.763475   3.837883   5.188143   6.150008
    25  O    7.119685   6.044763   5.025017   5.798772   6.589546
    26  C    5.092759   4.296168   3.176507   3.993708   4.875211
    27  C    4.506031   4.067467   3.263243   4.511589   5.359739
    28  C    4.621499   4.260364   3.840474   5.736143   6.656868
    29  C    5.318032   4.693990   4.367288   6.580933   7.596828
    30  C    5.833485   4.929365   4.375933   6.364852   7.391193
    31  H    5.683817   5.365260   4.177352   2.961615   3.142970
    32  H    3.407206   3.874236   3.394968   3.278317   3.850216
    33  H    2.160099   3.401154   3.873601   5.245927   6.068409
    34  H    1.091414   2.160357   3.407161   6.060758   7.236063
    35  H    2.160303   1.091430   2.153406   5.371841   6.744994
    36  H    3.398897   2.147230   1.092140   3.499060   4.867900
    37  H    6.597757   6.358496   5.168822   2.150404   1.088941
    38  H    8.074337   7.834331   6.742026   3.411332   2.154434
    39  H    7.951211   7.596816   6.698321   3.902769   3.409240
    40  H    6.252251   5.718985   5.021507   3.410849   3.872275
    41  H    4.204479   3.463233   2.582562   2.164292   3.399730
    42  H    6.858446   6.035811   4.694968   2.353793   2.525625
    43  H    8.439661   7.403781   6.203339   4.473263   4.684393
    44  H    8.828694   7.558534   6.548248   6.067036   6.684446
    45  H    7.838926   6.479580   5.599036   6.253876   7.176644
    46  H    6.640862   5.358874   4.625778   6.201518   7.276647
    47  H    4.454580   4.286288   3.480833   4.165525   4.845640
    48  H    4.644171   4.598180   4.408763   6.321655   7.182597
    49  H    5.767443   5.254134   5.167616   7.598946   8.634578
    50  H    6.632750   5.648291   5.186832   7.246445   8.290880
                   11         12         13         14         15
    11  C    0.000000
    12  C    1.393981   0.000000
    13  C    2.407369   1.395036   0.000000
    14  C    2.781044   2.417970   1.392731   0.000000
    15  C    4.759463   5.228738   4.674606   3.434869   0.000000
    16  O    5.451522   6.179835   5.856835   4.698101   1.435863
    17  C    4.848617   5.050386   4.417929   3.405599   1.510717
    18  C    4.019946   4.126353   3.699287   3.080736   2.548321
    19  C    4.801135   4.618885   4.174748   3.899280   3.830345
    20  C    6.120425   5.849264   5.202596   4.809289   4.334817
    21  C    6.708013   6.559147   5.773686   5.063150   3.817788
    22  C    6.184030   6.240093   5.464493   4.488675   2.531536
    23  C    7.319838   7.486434   6.677425   5.547103   2.945667
    24  C    7.349624   7.719384   6.988398   5.716113   2.604413
    25  O    7.692100   8.089160   7.474687   6.336665   3.211233
    26  C    6.166786   6.685901   6.080159   4.767693   1.503044
    27  C    6.725434   7.320753   6.726671   5.363771   2.617280
    28  C    8.011344   8.538854   7.844408   6.457627   3.807169
    29  C    8.907786   9.322366   8.520690   7.141809   4.344350
    30  C    8.635861   8.985415   8.171630   6.845854   3.899762
    31  H    4.516849   5.474181   5.372351   4.283578   2.252442
    32  H    4.921154   5.438400   5.031739   3.992348   4.121138
    33  H    6.958491   7.122676   6.415545   5.439486   5.865542
    34  H    8.093327   7.941882   6.872129   5.841222   6.165121
    35  H    7.609912   7.334839   6.089069   4.969637   4.895018
    36  H    5.826463   5.733799   4.628651   3.346622   2.584332
    37  H    2.157453   3.404981   3.869754   3.391770   3.630717
    38  H    1.091684   2.159449   3.400119   3.872675   5.576924
    39  H    2.161469   1.091439   2.161888   3.407986   6.281887
    40  H    3.399807   2.160281   1.091489   2.151860   5.446435
    41  H    3.871233   3.398681   2.145438   1.090309   3.446336
    42  H    3.026400   3.343331   3.225888   2.762324   2.773692
    43  H    4.611928   4.327765   4.115865   4.197340   4.696014
    44  H    6.861914   6.462183   5.841304   5.633146   5.425199
    45  H    7.789525   7.595477   6.749106   6.033721   4.680894
    46  H    8.242647   8.290665   7.379844   6.285375   3.969480
    47  H    6.228978   6.941581   6.483541   5.170922   2.850769
    48  H    8.542390   9.110475   8.447707   7.072226   4.685535
    49  H    9.946978  10.338058   9.495518   8.113228   5.425877
    50  H    9.486604   9.766975   8.909203   7.626263   4.755595
                   16         17         18         19         20
    16  O    0.000000
    17  C    2.453177   0.000000
    18  C    3.371950   1.401478   0.000000
    19  C    4.605702   2.436496   1.392723   0.000000
    20  C    5.089592   2.824789   2.415569   1.392504   0.000000
    21  C    4.510838   2.435929   2.771164   2.398453   1.390742
    22  C    3.226386   1.407560   2.402230   2.781239   2.423694
    23  C    3.263297   2.513116   3.758006   4.240824   3.747372
    24  C    2.547987   2.970324   4.346180   5.179569   4.981774
    25  O    2.859635   3.093947   4.268100   4.868280   4.537683
    26  C    1.443637   2.596923   3.873240   5.020861   5.230153
    27  C    2.454913   3.954467   5.156206   6.380727   6.647967
    28  C    3.633271   4.983230   6.281748   7.413585   7.494095
    29  C    4.194603   5.177019   6.565647   7.507988   7.319563
    30  C    3.783565   4.391940   5.785265   6.574845   6.241884
    31  H    1.901657   3.571968   4.103354   5.486168   6.292187
    32  H    4.712830   5.347843   5.844958   7.124346   7.885864
    33  H    6.611347   6.963213   7.623797   8.761002   9.284040
    34  H    7.129615   6.932480   7.756240   8.655976   8.826154
    35  H    6.017396   5.241934   6.155032   6.834706   6.728371
    36  H    3.855371   2.786828   3.761743   4.579510   4.637422
    37  H    3.888318   4.275027   3.941449   5.139634   6.348885
    38  H    6.073853   5.693049   4.798806   5.515078   6.883367
    39  H    7.212319   5.996124   4.955105   5.226270   6.444710
    40  H    6.714434   5.025817   4.311183   4.509806   5.363360
    41  H    4.842990   3.350062   3.336463   4.043062   4.661512
    42  H    3.484899   2.163447   1.085799   2.133401   3.386547
    43  H    5.427509   3.416187   2.148854   1.090973   2.160279
    44  H    6.157787   3.915545   3.407601   2.162849   1.090997
    45  H    5.283054   3.417920   3.862513   3.391667   2.156790
    46  H    4.337360   3.447048   4.598710   4.853648   4.080724
    47  H    2.671528   4.338203   5.349993   6.672497   7.140233
    48  H    4.489420   5.956193   7.206110   8.386511   8.526107
    49  H    5.267702   6.227050   7.622053   8.521177   8.251019
    50  H    4.646480   4.985953   6.342392   6.948790   6.408957
                   21         22         23         24         25
    21  C    0.000000
    22  C    1.397570   0.000000
    23  C    2.465295   1.479284   0.000000
    24  C    3.824458   2.575389   1.477123   0.000000
    25  O    3.403557   2.442672   1.434933   1.425311   0.000000
    26  C    4.365551   2.969509   2.577776   1.525925   2.519699
    27  C    5.774730   4.382542   3.839934   2.538454   3.730379
    28  C    6.456680   5.116318   4.245893   2.865976   4.127500
    29  C    6.111238   4.904666   3.715372   2.473691   3.616119
    30  C    4.972239   3.861577   2.522904   1.484604   2.438483
    31  H    5.956512   4.708684   4.946349   4.136953   4.727821
    32  H    7.562431   6.385998   6.629319   5.857052   6.971143
    33  H    8.804391   7.694954   7.723462   6.965051   8.290920
    34  H    8.176744   7.245173   7.121061   6.616394   7.983084
    35  H    5.968724   5.208049   5.091625   4.972635   6.198190
    36  H    3.936140   2.975765   3.215919   3.257443   4.291380
    37  H    6.564500   5.677685   6.487541   6.144254   6.543050
    38  H    7.541191   7.041452   8.169852   8.159099   8.415956
    39  H    7.300113   7.126571   8.432852   8.746225   9.054762
    40  H    5.998757   5.879750   7.116491   7.569334   8.056814
    41  H    4.722647   4.165531   5.115802   5.356715   6.089835
    42  H    3.855955   3.394960   4.646096   4.994230   5.004711
    43  H    3.392466   3.871447   5.326554   6.235301   5.891754
    44  H    2.157478   3.412363   4.615238   5.939514   5.402657
    45  H    1.091989   2.151573   2.651225   4.124914   3.601014
    46  H    2.693182   2.199237   1.094763   2.215812   2.132593
    47  H    6.429130   5.042847   4.733170   3.519613   4.607307
    48  H    7.516505   6.172081   5.330825   3.956330   5.195120
    49  H    6.991787   5.860323   4.591877   3.468966   4.493604
    50  H    5.057796   4.177470   2.712790   2.189881   2.643105
                   26         27         28         29         30
    26  C    0.000000
    27  C    1.492687   0.000000
    28  C    2.489577   1.340061   0.000000
    29  C    2.925641   2.450451   1.460793   0.000000
    30  C    2.581058   2.842772   2.425961   1.337825   0.000000
    31  H    2.659579   2.768853   4.072918   5.134687   5.144379
    32  H    4.484375   3.844396   4.673720   5.951887   6.422095
    33  H    5.917415   5.026411   5.281109   6.380294   7.102398
    34  H    6.057769   5.396106   5.310830   5.897231   6.499892
    35  H    4.828865   4.731878   4.739705   4.857849   4.984052
    36  H    2.917138   3.457245   4.051751   4.278640   3.959166
    37  H    4.777749   5.144472   6.463222   7.489809   7.355860
    38  H    6.942459   7.471355   8.781544   9.726081   9.466218
    39  H    7.752571   8.411534   9.628226  10.395951  10.029043
    40  H    6.803984   7.473401   8.507789   9.084318   8.697255
    41  H    4.595233   5.170333   6.110094   6.659020   6.357981
    42  H    4.222311   5.336773   6.573851   7.068494   6.432609
    43  H    5.978633   7.297532   8.389260   8.555669   7.647757
    44  H    6.292154   7.712051   8.514233   8.255372   7.128713
    45  H    4.974139   6.332076   6.829292   6.255932   5.033054
    46  H    3.519400   4.609149   4.761107   3.940755   2.689000
    47  H    2.206320   1.086531   2.108672   3.438775   3.927738
    48  H    3.474270   2.101751   1.091247   2.203292   3.394041
    49  H    4.015743   3.416151   2.208879   1.090876   2.113500
    50  H    3.546905   3.933399   3.436463   2.128590   1.091463
                   31         32         33         34         35
    31  H    0.000000
    32  H    3.333652   0.000000
    33  H    5.591775   2.482003   0.000000
    34  H    6.737935   4.309826   2.492773   0.000000
    35  H    6.253310   4.965614   4.307954   2.493349   0.000000
    36  H    4.369451   4.305457   4.965592   4.298283   2.461533
    37  H    2.580508   3.857908   6.266568   7.649959   7.278677
    38  H    5.035544   5.620843   7.740714   9.052735   8.667573
    39  H    6.515575   6.417311   8.003741   8.809151   8.231103
    40  H    6.363309   5.794496   6.851936   7.019519   6.153049
    41  H    4.682104   4.127221   5.151872   5.111506   3.995504
    42  H    3.730069   5.464296   7.449901   7.910141   6.603048
    43  H    6.100082   7.675236   9.383922   9.397188   7.678284
    44  H    7.366372   8.905176  10.236241   9.663720   7.494080
    45  H    6.847668   8.400072   9.465531   8.603854   6.262080
    46  H    5.994424   7.434124   8.268715   7.351917   5.151137
    47  H    2.187066   3.037742   4.509786   5.379806   5.129277
    48  H    4.571775   4.674325   4.986110   5.203779   5.129865
    49  H    6.144580   6.717780   6.837159   6.175407   5.292663
    50  H    6.149098   7.472361   8.049004   7.217391   5.519304
                   36         37         38         39         40
    36  H    0.000000
    37  H    5.366663   0.000000
    38  H    6.861196   2.479932   0.000000
    39  H    6.718243   4.308390   2.493635   0.000000
    40  H    4.966836   4.961180   4.306856   2.493838   0.000000
    41  H    2.563929   4.300170   4.962889   4.298153   2.460387
    42  H    4.265792   3.008289   3.741972   4.194607   4.027682
    43  H    5.486628   5.308361   5.196827   4.736571   4.386435
    44  H    5.563152   7.287691   7.578629   6.918371   5.849305
    45  H    4.512390   7.623591   8.630391   8.312085   6.884673
    46  H    3.678419   7.524576   9.128216   9.202844   7.693697
    47  H    3.905296   4.517984   6.903051   8.026416   7.310664
    48  H    4.823552   6.930686   9.277233  10.197069   9.121191
    49  H    5.132715   8.523780  10.772577  11.410319  10.017212
    50  H    4.641605   8.295781  10.327404  10.782280   9.361679
                   41         42         43         44         45
    41  H    0.000000
    42  H    3.359377   0.000000
    43  H    4.513782   2.441233   0.000000
    44  H    5.468256   4.287328   2.500705   0.000000
    45  H    5.581371   4.946883   4.300619   2.489457   0.000000
    46  H    5.718115   5.561209   5.928840   4.769283   2.434191
    47  H    5.140570   5.311029   7.489391   8.225265   7.101498
    48  H    6.744329   7.406569   9.332905   9.554171   7.897384
    49  H    7.570649   8.147089   9.580870   9.144104   7.021805
    50  H    7.078463   7.100530   8.034120   7.183529   4.883744
                   46         47         48         49         50
    46  H    0.000000
    47  H    5.576334   0.000000
    48  H    5.810287   2.422553   0.000000
    49  H    4.624284   4.311094   2.516880   0.000000
    50  H    2.471944   5.017764   4.318437   2.472954   0.000000
 Stoichiometry    C27H20O3
 Framework group  C1[X(C27H20O3)]
 Deg. of freedom   144
 Full point group                 C1      NOp   1
 Largest Abelian subgroup         C1      NOp   1
 Largest concise Abelian subgroup C1      NOp   1
                         Standard orientation:                         
 ---------------------------------------------------------------------
 Center     Atomic      Atomic             Coordinates (Angstroms)
 Number     Number       Type             X           Y           Z
 ---------------------------------------------------------------------
      1          8           0        0.552753   -1.441249   -2.063142
      2          6           0        0.668483   -0.867229   -0.775288
      3          6           0        0.118719   -1.851157    0.268667
      4          6           0        0.236656   -3.223244    0.034413
      5          6           0       -0.235864   -4.143321    0.967960
      6          6           0       -0.823522   -3.702765    2.154584
      7          6           0       -0.929988   -2.334777    2.400784
      8          6           0       -0.461867   -1.415220    1.463177
      9          6           0        2.169809   -0.674751   -0.484092
     10          6           0        3.073287   -0.619168   -1.549011
     11          6           0        4.432629   -0.406155   -1.319581
     12          6           0        4.911007   -0.259108   -0.018537
     13          6           0        4.019438   -0.342151    1.051199
     14          6           0        2.662575   -0.554969    0.820271
     15          6           0       -0.215797    0.450267   -0.761755
     16          8           0       -0.850538    0.743851   -2.015794
     17          6           0        0.252914    1.692322   -0.040730
     18          6           0        1.570198    2.159607   -0.143436
     19          6           0        1.999859    3.279090    0.564960
     20          6           0        1.119174    3.963017    1.399050
     21          6           0       -0.212712    3.565402    1.445375
     22          6           0       -0.655946    2.465390    0.705972
     23          6           0       -2.115108    2.253816    0.586124
     24          6           0       -2.665361    1.195662   -0.285324
     25          8           0       -2.641027    2.554560   -0.714643
     26          6           0       -1.690184    0.233875   -0.957963
     27          6           0       -2.254703   -1.117352   -1.247132
     28          6           0       -3.494915   -1.479763   -0.891753
     29          6           0       -4.404463   -0.561911   -0.210442
     30          6           0       -4.023401    0.694845    0.044766
     31          1           0        0.123396   -0.772518   -2.622734
     32          1           0        0.685979   -3.568723   -0.897054
     33          1           0       -0.146821   -5.212471    0.765738
     34          1           0       -1.196841   -4.423333    2.884378
     35          1           0       -1.387692   -1.976585    3.324594
     36          1           0       -0.567547   -0.348223    1.670828
     37          1           0        2.703022   -0.735336   -2.566458
     38          1           0        5.120880   -0.356796   -2.165542
     39          1           0        5.974118   -0.090946    0.162446
     40          1           0        4.381568   -0.239894    2.075774
     41          1           0        1.983018   -0.609666    1.671143
     42          1           0        2.281817    1.656271   -0.790901
     43          1           0        3.034281    3.610641    0.463632
     44          1           0        1.456549    4.824580    1.977118
     45          1           0       -0.934643    4.134458    2.034808
     46          1           0       -2.732340    2.614726    1.415145
     47          1           0       -1.618340   -1.805563   -1.796640
     48          1           0       -3.852679   -2.478830   -1.146099
     49          1           0       -5.406734   -0.903033    0.052428
     50          1           0       -4.696008    1.422441    0.502471
 ---------------------------------------------------------------------
 Rotational constants (GHZ):      0.2230827      0.1811319      0.1284243
 Standard basis: CC-pVDZ (5D, 7F)
 There are   550 symmetry adapted cartesian basis functions of A   symmetry.
 There are   520 symmetry adapted basis functions of A   symmetry.
   520 basis functions,  1130 primitive gaussians,   550 cartesian basis functions
   103 alpha electrons      103 beta electrons
       nuclear repulsion energy      2943.6397966943 Hartrees.
 NAtoms=   50 NActive=   50 NUniq=   50 SFac= 1.00D+00 NAtFMM=   60 NAOKFM=F Big=F
 Integral buffers will be    131072 words long.
 Raffenetti 1 integral format.
 Two-electron integral symmetry is turned on.
 Nuclear repulsion after empirical dispersion term =     2943.5893376744 Hartrees.
 ------------------------------------------------------------------------------
 Polarizable Continuum Model (PCM)
 =================================
 Model                : C-PCM.
 Atomic radii         : UFF (Universal Force Field).
 Polarization charges : Total charges.
 Charge compensation  : None.
 Solution method      : On-the-fly selection.
 Cavity type          : Scaled VdW (van der Waals Surface) (Alpha=1.100).
 Cavity algorithm     : GePol (No added spheres)
                        Default sphere list used, NSphG=   50.
                        Lebedev-Laikov grids with approx.  5.0 points / Ang**2.
                        Smoothing algorithm: Karplus/York (Gamma=1.0000).
                        Polarization charges: spherical gaussians, with
                                              point-specific exponents (IZeta= 3).
                        Self-potential: point-specific (ISelfS= 7).
                        Self-field    : sphere-specific E.n sum rule (ISelfD= 2).
 Solvent              : n,n-DiMethylFormamide, Eps=  37.219000 Eps(inf)=   2.046330
 ------------------------------------------------------------------------------
 One-electron integrals computed using PRISM.
 NBasis=   520 RedAO= T EigKep=  2.02D-04  NBF=   520
 NBsUse=   520 1.00D-06 EigRej= -1.00D+00 NBFU=   520
 Initial guess from the checkpoint file:  "D:\Yaroslav\pink-mystery\DE2\conf1\DE2_conf1_669kjm.chk"
 B after Tr=     0.000000    0.000000    0.000000
         Rot=    1.000000    0.000000    0.000000    0.000000 Ang=   0.00 deg.
 Requested convergence on RMS density matrix=1.00D-08 within 128 cycles.
 Requested convergence on MAX density matrix=1.00D-06.
 Requested convergence on             energy=1.00D-06.
 No special actions if energy rises.
 Inv3:  Mode=1 IEnd=    34884300.
 Iteration    1 A*A^-1 deviation from unit magnitude is 6.44D-15 for   1873.
 Iteration    1 A*A^-1 deviation from orthogonality  is 3.05D-15 for   3100   2906.
 Iteration    1 A^-1*A deviation from unit magnitude is 6.22D-15 for   1873.
 Iteration    1 A^-1*A deviation from orthogonality  is 2.94D-15 for   3178   1840.
 Error on total polarization charges =  0.01320
 SCF Done:  E(RwB97XD) =  -1266.16982967     A.U. after    1 cycles
            NFock=  1  Conv=0.40D-08     -V/T= 2.0065
 DoSCS=F DFT=T ScalE2(SS,OS)=  1.000000  1.000000
 ExpMin= 1.22D-01 ExpMax= 1.17D+04 ExpMxC= 4.01D+02 IAcc=3 IRadAn=         5 AccDes= 0.00D+00
 HarFok:  IExCor=  205 AccDes= 0.00D+00 IRadAn=         5 IDoV=-2 UseB2=F ITyADJ=14
 ICtDFT= 12500011 ScaDFX=  1.000000  1.000000  1.000000  1.000000
 Range of M.O.s used for correlation:    31   520
 NBasis=   520 NAE=   103 NBE=   103 NFC=    30 NFV=     0
 NROrb=    490 NOA=    73 NOB=    73 NVA=   417 NVB=   417

 **** Warning!!: The largest alpha MO coefficient is  0.12720739D+02

 Would need an additional         53032200000 words for in-memory AO integral storage.
 NEqPCM:  Using non-equilibrium solvation (IEInf=1, Eps=  37.2190, EpsInf=   2.0463)
 Inv3:  Mode=1 IEnd=    34884300.
 Iteration    1 A*A^-1 deviation from unit magnitude is 6.44D-15 for   1873.
 Iteration    1 A*A^-1 deviation from orthogonality  is 3.05D-15 for   3100   2906.
 Iteration    1 A^-1*A deviation from unit magnitude is 6.22D-15 for   1873.
 Iteration    1 A^-1*A deviation from orthogonality  is 2.94D-15 for   3178   1840.
 Orbital symmetries:
       Occupied  (A) (A) (A) (A) (A) (A) (A) (A) (A) (A) (A) (A)
                 (A) (A) (A) (A) (A) (A) (A) (A) (A) (A) (A) (A)
                 (A) (A) (A) (A) (A) (A) (A) (A) (A) (A) (A) (A)
                 (A) (A) (A) (A) (A) (A) (A) (A) (A) (A) (A) (A)
                 (A) (A) (A) (A) (A) (A) (A) (A) (A) (A) (A) (A)
                 (A) (A) (A) (A) (A) (A) (A) (A) (A) (A) (A) (A)
                 (A) (A) (A) (A) (A) (A) (A) (A) (A) (A) (A) (A)
                 (A) (A) (A) (A) (A) (A) (A) (A) (A) (A) (A) (A)
                 (A) (A) (A) (A) (A) (A) (A)
       Virtual   (A) (A) (A) (A) (A) (A) (A) (A) (A) (A) (A) (A)
                 (A) (A) (A) (A) (A) (A) (A) (A) (A) (A) (A) (A)
                 (A) (A) (A) (A) (A) (A) (A) (A) (A) (A) (A) (A)
                 (A) (A) (A) (A) (A) (A) (A) (A) (A) (A) (A) (A)
                 (A) (A) (A) (A) (A) (A) (A) (A) (A) (A) (A) (A)
                 (A) (A) (A) (A) (A) (A) (A) (A) (A) (A) (A) (A)
                 (A) (A) (A) (A) (A) (A) (A) (A) (A) (A) (A) (A)
                 (A) (A) (A) (A) (A) (A) (A) (A) (A) (A) (A) (A)
                 (A) (A) (A) (A) (A) (A) (A) (A) (A) (A) (A) (A)
                 (A) (A) (A) (A) (A) (A) (A) (A) (A) (A) (A) (A)
                 (A) (A) (A) (A) (A) (A) (A) (A) (A) (A) (A) (A)
                 (A) (A) (A) (A) (A) (A) (A) (A) (A) (A) (A) (A)
                 (A) (A) (A) (A) (A) (A) (A) (A) (A) (A) (A) (A)
                 (A) (A) (A) (A) (A) (A) (A) (A) (A) (A) (A) (A)
                 (A) (A) (A) (A) (A) (A) (A) (A) (A) (A) (A) (A)
                 (A) (A) (A) (A) (A) (A) (A) (A) (A) (A) (A) (A)
                 (A) (A) (A) (A) (A) (A) (A) (A) (A) (A) (A) (A)
                 (A) (A) (A) (A) (A) (A) (A) (A) (A) (A) (A) (A)
                 (A) (A) (A) (A) (A) (A) (A) (A) (A) (A) (A) (A)
                 (A) (A) (A) (A) (A) (A) (A) (A) (A) (A) (A) (A)
                 (A) (A) (A) (A) (A) (A) (A) (A) (A) (A) (A) (A)
                 (A) (A) (A) (A) (A) (A) (A) (A) (A) (A) (A) (A)
                 (A) (A) (A) (A) (A) (A) (A) (A) (A) (A) (A) (A)
                 (A) (A) (A) (A) (A) (A) (A) (A) (A) (A) (A) (A)
                 (A) (A) (A) (A) (A) (A) (A) (A) (A) (A) (A) (A)
                 (A) (A) (A) (A) (A) (A) (A) (A) (A) (A) (A) (A)
                 (A) (A) (A) (A) (A) (A) (A) (A) (A) (A) (A) (A)
                 (A) (A) (A) (A) (A) (A) (A) (A) (A) (A) (A) (A)
                 (A) (A) (A) (A) (A) (A) (A) (A) (A) (A) (A) (A)
                 (A) (A) (A) (A) (A) (A) (A) (A) (A) (A) (A) (A)
                 (A) (A) (A) (A) (A) (A) (A) (A) (A) (A) (A) (A)
                 (A) (A) (A) (A) (A) (A) (A) (A) (A) (A) (A) (A)
                 (A) (A) (A) (A) (A) (A) (A) (A) (A) (A) (A) (A)
                 (A) (A) (A) (A) (A) (A) (A) (A) (A) (A) (A) (A)
                 (A) (A) (A) (A) (A) (A) (A) (A) (A)
   240 initial guesses have been made.
 Convergence on wavefunction:    0.001000000000000
 Iteration     1 Dimension   240 NMult     0 NNew    240
 CISAX will form   240 AO SS matrices at one time.
 New state      2 was old state      9
 New state      3 was old state     12
 New state      4 was old state     31
 New state      5 was old state      3
 New state      6 was old state     23
 New state      7 was old state      2
 New state      8 was old state      6
 New state      9 was old state      8
 New state     10 was old state      7
 New state     11 was old state      5
 New state     12 was old state     15
 New state     13 was old state     10
 New state     14 was old state     16
 New state     15 was old state     14
 New state     16 was old state     11
 New state     17 was old state      4
 New state     18 was old state     46
 New state     20 was old state     21
 New state     21 was old state     25
 New state     22 was old state     42
 New state     23 was old state     33
 New state     24 was old state     17
 New state     25 was old state     36
 New state     26 was old state     22
 New state     27 was old state     20
 New state     28 was old state     24
 New state     29 was old state     13
 New state     30 was old state     70
 New state     31 was old state     63
 New state     32 was old state     18
 New state     33 was old state     26
 New state     34 was old state     37
 New state     35 was old state     34
 New state     36 was old state     52
 New state     37 was old state     30
 New state     38 was old state     28
 New state     39 was old state     54
 New state     40 was old state     35
 New state     41 was old state     27
 New state     42 was old state     39
 New state     43 was old state     55
 New state     44 was old state     38
 New state     45 was old state     59
 New state     46 was old state     47
 New state     47 was old state     32
 New state     48 was old state     43
 New state     49 was old state     60
 New state     50 was old state     45
 New state     51 was old state     68
 New state     52 was old state    101
 New state     53 was old state     62
 New state     54 was old state     41
 New state     55 was old state     49
 New state     56 was old state    104
 New state     57 was old state     48
 New state     58 was old state    120
 New state     59 was old state     82
 New state     60 was old state     75
 Iteration     2 Dimension   360 NMult   240 NNew    120
 New state      8 was old state     14
 New state      9 was old state      8
 New state     10 was old state     11
 New state     11 was old state      9
 New state     12 was old state     10
 New state     13 was old state     12
 New state     14 was old state     13
 New state     15 was old state     21
 New state     16 was old state     18
 New state     17 was old state     15
 New state     18 was old state     17
 New state     19 was old state     16
 New state     20 was old state     19
 New state     21 was old state     23
 New state     22 was old state     24
 New state     23 was old state     22
 New state     24 was old state     20
 New state     26 was old state     27
 New state     27 was old state     28
 New state     28 was old state     34
 New state     29 was old state     26
 New state     30 was old state     29
 New state     32 was old state     30
 New state     33 was old state     35
 New state     34 was old state     36
 New state     35 was old state     32
 New state     36 was old state     37
 New state     37 was old state     33
 New state     38 was old state     39
 New state     39 was old state     38
 New state     40 was old state     42
 New state     41 was old state     43
 New state     42 was old state     40
 New state     43 was old state     41
 New state     44 was old state     46
 New state     45 was old state     44
 New state     46 was old state     49
 New state     47 was old state     45
 New state     49 was old state     47
 New state     50 was old state     51
 New state     51 was old state     54
 New state     52 was old state     50
 New state     53 was old state     52
 New state     54 was old state     55
 New state     55 was old state     53
 New state     57 was old state     60
 New state     60 was old state     61
 Iteration     3 Dimension   480 NMult   360 NNew    120
 New state     35 was old state     36
 New state     36 was old state     35
 New state     44 was old state     45
 New state     45 was old state     44
 Iteration     4 Dimension   596 NMult   480 NNew    116
 Iteration     5 Dimension   678 NMult   596 NNew     82
 Iteration     6 Dimension   684 NMult   678 NNew      6
 Iteration     7 Dimension   686 NMult   684 NNew      2
 ***********************************************************************
 Excited states from <AA,BB:AA,BB> singles matrix:
 ***********************************************************************
 
 Ground to excited state transition densities written to RWF  633
 Ground to excited state transition electric dipole moments (Au):
       state          X           Y           Z        Dip. S.      Osc.
         1         0.7734     -0.8342     -0.2714      1.3678      0.1463
         2         0.3791      0.1641      0.0922      0.1791      0.0227
         3        -0.3015      0.0058      0.1196      0.1052      0.0139
         4         0.0009     -0.0119      0.0351      0.0014      0.0002
         5         0.4393     -0.3233      0.0832      0.3044      0.0422
         6        -0.2477     -0.0204     -0.1459      0.0830      0.0117
         7         0.6824      0.4678     -0.2548      0.7494      0.1058
         8         0.4323     -0.1224     -0.3185      0.3033      0.0435
         9         0.3001     -0.5051     -0.0060      0.3452      0.0507
        10        -0.8631     -0.6300     -0.1241      1.1573      0.1710
        11        -0.7693     -0.2480     -0.1896      0.6893      0.1026
        12        -0.7109     -0.3573     -0.0673      0.6375      0.0957
        13        -0.1504     -0.0069     -0.2148      0.0688      0.0105
        14         0.0331      0.9052      0.4971      1.0675      0.1638
        15        -1.0872      0.5677      0.4304      1.6896      0.2618
        16         1.1288     -0.3680     -0.9370      2.2876      0.3605
        17         0.6000      0.2613     -0.2825      0.5081      0.0809
        18        -0.1938      0.6893      0.0354      0.5139      0.0826
        19        -0.0207     -0.9170      0.4476      1.0416      0.1680
        20        -0.0966     -0.3875     -0.1617      0.1856      0.0300
        21         0.7282      0.4914      0.6985      1.2596      0.2058
        22         1.5524      1.4873     -0.2819      4.7015      0.7710
        23        -0.2382     -0.0475      0.5854      0.4016      0.0661
        24        -0.6820      0.1674      0.0115      0.4932      0.0817
        25         0.7141      0.5961     -0.0863      0.8728      0.1461
        26         0.9703      0.1856      0.0089      0.9761      0.1646
        27        -0.0384      0.5557      0.8230      0.9877      0.1671
        28         0.3094      1.2025      0.5876      1.8869      0.3208
        29         0.4689      0.3440      0.1543      0.3620      0.0620
        30        -0.3337      0.2319     -0.6563      0.5959      0.1026
        31        -0.4717     -0.1099     -0.7986      0.8723      0.1505
        32        -0.4003     -0.0681      0.8624      0.9086      0.1578
        33        -0.3340     -0.3942     -0.1938      0.3045      0.0530
        34         0.4106     -0.3196      0.7284      0.8013      0.1401
        35        -0.6698      0.2271     -0.1715      0.5296      0.0930
        36        -0.3160      0.1406     -0.0289      0.1204      0.0212
        37        -0.0520     -0.1081      0.1680      0.0426      0.0076
        38        -0.5506     -0.0538      0.2462      0.3667      0.0654
        39         0.0805      0.4667      0.1489      0.2465      0.0442
        40        -0.0830      0.0455      0.2781      0.0863      0.0155
        41        -0.0462      0.0551      0.1687      0.0336      0.0061
        42        -0.2380      0.0297      0.2266      0.1089      0.0198
        43        -0.5057     -0.0118     -0.4700      0.4767      0.0869
        44        -0.2693      0.0712     -0.3438      0.1958      0.0358
        45         0.1194      0.2386     -0.0588      0.0747      0.0137
        46         0.3961      0.1019      0.1107      0.1796      0.0329
        47         0.1102      0.1844     -0.0058      0.0462      0.0085
        48         0.1649      0.0628      0.2206      0.0798      0.0147
        49        -0.0950      0.2569     -0.2138      0.1208      0.0223
        50         0.0150      0.0340      0.1709      0.0306      0.0057
        51        -0.2398      0.1175      0.1594      0.0967      0.0180
        52        -0.0269      0.2144     -0.0043      0.0467      0.0087
        53         0.0543     -0.0212      0.0703      0.0083      0.0016
        54         0.4551      0.4068     -0.3616      0.5033      0.0946
        55        -0.4103      0.3308      0.5013      0.5291      0.0997
        56         0.1092     -0.0282      0.1093      0.0247      0.0047
        57         0.0483      0.3025      0.0832      0.1008      0.0191
        58        -0.0328     -0.1786     -0.0294      0.0338      0.0064
        59        -0.0678      0.0012      0.0081      0.0047      0.0009
        60         0.2755      0.0766     -0.0331      0.0829      0.0159
 Ground to excited state transition velocity dipole moments (Au):
       state          X           Y           Z        Dip. S.      Osc.
         1        -0.1281      0.1387      0.0477      0.0379      0.1575
         2        -0.0717     -0.0299     -0.0182      0.0064      0.0223
         3         0.0586     -0.0017     -0.0252      0.0041      0.0138
         4         0.0004      0.0043     -0.0073      0.0001      0.0002
         5        -0.0901      0.0680     -0.0182      0.0131      0.0419
         6         0.0469      0.0005      0.0288      0.0030      0.0096
         7        -0.1462     -0.0964      0.0506      0.0332      0.1046
         8        -0.0933      0.0279      0.0686      0.0142      0.0440
         9        -0.0656      0.1107      0.0011      0.0166      0.0501
        10         0.1862      0.1389      0.0274      0.0547      0.1645
        11         0.1698      0.0540      0.0402      0.0334      0.0996
        12         0.1582      0.0794      0.0134      0.0315      0.0933
        13         0.0339      0.0048      0.0509      0.0038      0.0110
        14        -0.0096     -0.2058     -0.1166      0.0561      0.1623
        15         0.2509     -0.1285     -0.1016      0.0898      0.2576
        16        -0.2657      0.0849      0.2202      0.1263      0.3563
        17        -0.1393     -0.0666      0.0662      0.0282      0.0788
        18         0.0482     -0.1614     -0.0087      0.0285      0.0787
        19         0.0064      0.2200     -0.1098      0.0605      0.1667
        20         0.0248      0.0908      0.0433      0.0107      0.0295
        21        -0.1786     -0.1166     -0.1714      0.0749      0.2037
        22        -0.3778     -0.3595      0.0711      0.2770      0.7507
        23         0.0564      0.0124     -0.1403      0.0230      0.0622
        24         0.1671     -0.0434     -0.0043      0.0298      0.0800
        25        -0.1691     -0.1535      0.0223      0.0527      0.1399
        26        -0.2427     -0.0441     -0.0010      0.0608      0.1603
        27         0.0066     -0.1399     -0.2059      0.0620      0.1629
        28        -0.0785     -0.3060     -0.1517      0.1229      0.3212
        29        -0.1211     -0.0804     -0.0394      0.0227      0.0589
        30         0.0849     -0.0619      0.1714      0.0404      0.1044
        31         0.1197      0.0306      0.2037      0.0567      0.1462
        32         0.1007      0.0186     -0.2225      0.0600      0.1536
        33         0.0842      0.1014      0.0496      0.0198      0.0506
        34        -0.1058      0.0824     -0.1887      0.0536      0.1363
        35         0.1738     -0.0598      0.0430      0.0356      0.0902
        36         0.0835     -0.0385      0.0081      0.0085      0.0215
        37         0.0136      0.0282     -0.0445      0.0030      0.0074
        38         0.1443      0.0155     -0.0664      0.0255      0.0635
        39        -0.0203     -0.1192     -0.0414      0.0163      0.0405
        40         0.0249     -0.0149     -0.0720      0.0060      0.0149
        41         0.0163     -0.0115     -0.0456      0.0025      0.0061
        42         0.0641     -0.0087     -0.0608      0.0079      0.0193
        43         0.1338      0.0029      0.1260      0.0338      0.0824
        44         0.0709     -0.0184      0.0945      0.0143      0.0347
        45        -0.0373     -0.0650      0.0157      0.0059      0.0142
        46        -0.1070     -0.0235     -0.0292      0.0128      0.0311
        47        -0.0318     -0.0535      0.0048      0.0039      0.0094
        48        -0.0471     -0.0183     -0.0644      0.0067      0.0161
        49         0.0276     -0.0686      0.0582      0.0089      0.0213
        50        -0.0067     -0.0064     -0.0461      0.0022      0.0053
        51         0.0647     -0.0299     -0.0455      0.0071      0.0170
        52         0.0053     -0.0574      0.0016      0.0033      0.0079
        53        -0.0129      0.0036     -0.0164      0.0004      0.0011
        54        -0.1281     -0.1096      0.1012      0.0386      0.0914
        55         0.1146     -0.0926     -0.1364      0.0403      0.0951
        56        -0.0341      0.0080     -0.0296      0.0021      0.0049
        57        -0.0174     -0.0820     -0.0172      0.0073      0.0171
        58         0.0064      0.0523      0.0066      0.0028      0.0066
        59         0.0193     -0.0030     -0.0021      0.0004      0.0009
        60        -0.0796     -0.0217      0.0102      0.0069      0.0160
 Ground to excited state transition magnetic dipole moments (Au):
       state          X           Y           Z
         1        -0.2837      1.3968     -2.4274
         2        -0.0497     -0.1092      0.5217
         3         0.1433      0.1338      0.0181
         4        -0.1213      0.0724     -0.1025
         5         0.1327     -0.3000      0.6562
         6        -0.1418      0.1962     -0.4125
         7        -0.4101      0.4240      0.0367
         8        -0.0372      0.0172     -0.1948
         9         0.2441      0.1488     -0.5847
        10         0.3759     -0.1838     -0.0442
        11        -0.0364     -0.0188     -1.1396
        12        -0.0765      0.2207     -0.5619
        13        -0.7516      0.1800     -0.7826
        14        -0.1991      0.0888      0.5946
        15        -0.5533      0.4057     -1.0022
        16         0.0953     -0.6974      0.2018
        17         0.3560     -0.6052     -0.1072
        18        -0.3274      0.6752     -1.5173
        19        -0.0524      1.9266     -1.4510
        20        -0.5808     -0.6223      0.1638
        21         0.0180      1.3463      1.0121
        22        -1.0409     -0.2946     -0.5811
        23        -0.0207      0.1983      0.1429
        24         0.4348     -0.2487     -0.2815
        25        -0.2269     -0.3984      0.5646
        26        -0.4634      0.4703     -0.0458
        27         2.0934      0.5876      0.8700
        28         0.6996      0.5578      0.1234
        29         0.0442     -0.2714      0.6470
        30        -0.0100     -0.4251     -0.9425
        31        -0.7026     -0.5079     -0.2573
        32         0.1110      1.0083     -0.4850
        33         0.4452     -0.5869     -0.0683
        34         0.5252      0.5833      0.6350
        35         0.2168      0.4710      0.3457
        36         0.3411      0.1310      0.0461
        37         0.3458      0.2915      0.1237
        38         0.8448      0.0633      0.0452
        39         0.3629     -0.2072      0.2590
        40         0.2616     -0.0416      0.1267
        41         0.0876     -0.0504     -0.2414
        42         0.2272     -0.0194      0.1925
        43        -0.3603     -0.4516     -0.2530
        44        -0.0408     -0.6075      0.2985
        45        -0.1557      0.0900     -0.0791
        46         0.2718      0.6955     -0.3132
        47         0.1437      0.1588      0.3663
        48         0.1727      0.3724      0.1337
        49        -0.0536     -0.4983     -0.2518
        50        -0.0803      0.3135      0.5291
        51        -0.0370      0.0548     -0.0726
        52         0.1443     -0.5051      0.4914
        53        -0.1111      0.3252      0.2343
        54         0.1892     -0.2341      0.6659
        55         0.0678      0.4748      0.4146
        56        -0.1229      0.2525     -0.0825
        57         0.1206      0.2842      0.7162
        58         0.3989     -0.1890     -0.3608
        59        -0.2079      0.1317     -0.1264
        60        -0.0247      0.1267      0.4739
 Ground to excited state transition velocity quadrupole moments (Au):
       state          XX          YY          ZZ          XY          XZ          YZ
         1         0.9968      0.0152     -0.3338     -0.5622     -0.1820      0.0769
         2         0.3710     -0.3455     -0.0300     -0.3316      0.0066     -0.0371
         3         0.3122     -0.2016     -0.0853     -0.0486     -0.0262      0.0385
         4         0.0418     -0.1257      0.0359      0.0253     -0.0571      0.0073
         5         0.9394     -0.4483     -0.1640     -0.4212      0.1251      0.2741
         6        -0.7068      0.3906      0.0562     -0.1234     -0.2147     -0.2399
         7        -0.9911      0.6525      0.2145     -0.0821     -0.2056     -0.4384
         8        -0.4210      0.6920      0.0603     -0.0956     -0.0978     -0.0094
         9        -1.0287      0.4199      0.1193      0.3082      0.0431      0.3606
        10         0.1120      0.5510     -0.1453     -0.2413     -0.0031      0.4546
        11        -0.7496      0.6598      0.0729      0.2332     -0.0494     -0.1326
        12        -0.0424      0.1800      0.1227      0.3021     -0.0340      0.1309
        13        -0.2176     -0.5543      0.3692      0.0664     -0.2894     -0.5525
        14         0.9430     -1.2809     -0.1024     -0.7731     -0.3003     -0.6881
        15         1.4970     -1.2134     -0.1724      0.4176     -0.0345     -0.6388
        16        -2.4772      1.9565      0.3150      0.0994      0.3970      0.2179
        17        -1.1466      0.8969     -0.3091      0.0283      0.7592     -0.0636
        18        -0.6081      0.7465     -0.0029      0.8151     -0.1606     -0.8443
        19        -1.2919      0.4772      0.3882      1.0561     -1.1963      0.6384
        20         1.1390     -1.7120     -0.1766     -0.0251      0.4971      0.1053
        21         0.5905     -0.6936      0.3053     -0.9699     -1.6571     -0.0685
        22        -2.2072     -0.0487      0.4744      0.2168      0.0065     -1.7430
        23         1.3125     -1.1406     -0.2345      0.2745      0.0062      0.1930
        24         0.2609      1.0085     -0.2728      0.6898      0.5092      0.0833
        25        -0.3787     -0.8779      0.1988     -0.6084     -0.0695     -0.4118
        26        -1.1654     -0.2447      0.4374      0.1727     -0.5219     -0.4596
        27        -0.6065      2.5647     -0.8199     -0.5631     -0.2331      0.8976
        28        -1.1221      1.2774     -0.2895     -0.1554     -0.2644     -0.6006
        29         0.3101     -0.9960     -0.1671     -0.6365      0.1102      0.0478
        30        -0.1974      1.7830      0.3379      0.3927     -0.0729     -0.6924
        31         1.3984      0.5856      0.7716     -0.1918     -0.5457     -0.8662
        32        -0.0816     -0.9443     -0.1886      0.0204     -0.6231     -0.0193
        33        -0.1097      0.1463      0.0722     -0.9335      0.1188      0.2847
        34        -0.5125     -1.5923     -0.2712     -0.5190     -0.1521      0.8906
        35         2.3910      1.2956      0.2598      0.2765     -0.8823     -0.3171
        36         0.4139      1.0880      0.1970     -0.0966     -0.5360     -0.0160
        37        -0.2278      0.4093      0.0223      0.0369     -0.1977      0.2905
        38         0.3816      0.6215     -0.5444     -0.1006      0.2693      0.5250
        39         0.4575      0.3824     -0.3859     -0.0043      0.3647     -0.0611
        40        -0.2881      0.3248     -0.1748     -0.1298      0.0163      0.2014
        41         0.2130     -0.0833     -0.2234      0.0342      0.1266      0.0792
        42         0.7169     -0.6569     -0.2801     -0.4283      0.0106      0.1712
        43         0.8747      0.0412      0.1153      0.3959      0.4514     -0.5364
        44         0.4446      0.7840      0.0270      0.0172      0.2686     -0.1620
        45        -0.2899      0.5728      0.1905      0.1256     -0.2168     -0.3301
        46        -1.0976      0.4980      0.2234     -0.0613     -0.7185     -0.2840
        47        -0.0040      0.4745     -0.0080      0.1926     -0.0782      0.1723
        48        -0.1997      0.2406      0.1285     -0.1246     -0.4292      0.1069
        49         0.2223     -0.1063     -0.1600     -0.1965      0.2664     -0.3658
        50         0.8021     -1.1754      0.0836      0.0439     -0.4226      0.0583
        51         0.2568      0.2575     -0.1884      0.0275     -0.0658     -0.1327
        52         0.0497      0.2604     -0.1589     -0.0247      0.4439      0.1857
        53         0.2454      0.2484      0.0554      0.1857     -0.1680      0.1459
        54         0.1169      0.7514     -0.0793      0.2605      0.4591      0.0009
        55         1.2116      0.4731     -0.2880      0.3382     -0.4795     -0.1239
        56        -0.5271     -0.1363      0.1087      0.0251     -0.4163     -0.2567
        57         0.6507      0.2163      0.0825      0.7765     -0.0178      0.0903
        58        -1.2837      0.0706      0.0363     -0.4486      0.3185      0.3506
        59         0.1086     -0.1220     -0.0314     -0.0832     -0.0366     -0.2057
        60         0.1113     -0.2646      0.1962      0.2831     -0.0555      0.1041
 <0|del|b> * <b|rxdel|0> + <0|del|b> * <b|delr+rdel|0>
 Rotatory Strengths (R) in cgs (10**-40 erg-esu-cm/Gauss)
       state          XX          YY          ZZ    R(velocity)    E-M Angle
         1       168.0198   -137.8894    473.0331    167.7212       77.98
         2         0.0010    -17.2942      7.3837     -3.3032       93.58
         3         0.8842     16.0844     10.6722      9.2136       52.13
         4         1.9945      1.5839      0.0362      1.2048       46.61
         5       -56.3854    -95.5394      1.4154    -50.1698      121.88
         6       -25.5056    -43.9246      7.6951    -20.5784      134.44
         7      -105.1744    217.1380    -42.0717     23.2973       78.80
         8       -27.4643     -4.0397      0.5610    -10.3143      113.40
         9        18.2724    -65.3389     46.3664     -0.2334       90.15
        10       -52.5168    255.2060    -64.7583     45.9770       63.93
        11       -55.0664   -132.8003     20.0349    -55.9439      104.74
        12        26.2780     -4.7195    -28.2500     -2.2305       91.13
        13       -52.7840   -134.9692    -11.2356    -66.3296      162.76
        14       -91.0341   -232.0130     59.6770    -87.7900      124.87
        15         4.3244   -235.5998    -39.9135    -90.3963      104.17
        16       -39.7888    -90.8097     10.5635    -40.0117       98.87
        17       126.9438    -73.6058   -101.7717    -16.1446       97.88
        18      -188.9990    -53.1497    -85.3329   -109.1605      113.02
        19      1067.3990    407.7552    228.3285    567.8276       10.82
        20      -139.5373     -5.2649    -41.4302    -62.0774      135.26
        21      -515.5754   -477.1764     30.0108   -320.9137      136.37
        22       118.3427   1430.1166   -232.3532    438.7020       44.90
        23       -80.4732     40.3662    -13.6145    -17.9072      120.26
        24        44.3385    129.1350     67.4864     80.3200       31.44
        25        69.7396    188.9327     57.1014    105.2579       47.81
        26       -61.3225    313.4041      4.4629     85.5148       55.80
        27      -247.9887   -383.2962    -58.0344   -229.7731      115.10
        28      -342.1581    -69.4497   -266.1163   -225.9080      140.53
        29        41.6612    -84.8801     18.4332     -8.2619       94.88
        30       -99.1660   -395.0914    121.6324   -124.2083      130.87
        31      -123.3556   -274.8118    -17.3553   -138.5076      134.91
        32       181.4649    165.1969     27.5288    124.7302       59.97
        33      -164.1212    141.2978    -45.9642    -22.9292      104.11
        34        52.1620   -495.6402    100.0274   -114.4836      123.02
        35       -72.7215    -19.4002    157.6055     21.8279       78.04
        36       -34.8842     37.8393     60.7076     21.2209       45.54
        37         8.8373      6.3728      4.5055      6.5719       73.03
        38         0.6461    248.3446     67.7701    105.5870       27.69
        39        75.7594    -22.3916    -36.0077      5.7867       83.97
        40         1.4263     -9.0798      2.4604     -1.7310       94.99
        41        14.9910     19.9812     -0.9614     11.3369        2.22
        42        18.9218    -15.8345      4.7467      2.6113       83.45
        43        19.8532   -260.8158     30.4715    -70.1637      134.61
        44        59.1914     15.7408     19.0843     31.3388       63.25
        45       -24.7239     19.1786      2.2399     -1.1018       94.90
        46       -28.6088     11.1361    -75.6953    -31.0560      113.27
        47       -12.7355    -11.7559     -4.3397     -9.6104      115.22
        48       -19.5019    -38.0396     -2.6286    -20.0567      131.84
        49        33.6272    -18.8944     31.2976     15.3435       70.01
        50       -39.3700    -28.1256      2.0471    -21.8162      152.45
        51        -1.9685     -8.1176      8.2292     -0.6190       95.08
        52        69.4874      3.2783      4.1448     25.6369       42.53
        53        -6.4314     -1.5610      4.8532     -1.0464       98.18
        54       212.8542     20.9168    -61.1722     57.5329       61.39
        55      -239.0835    -21.0863     28.0412    -77.3762      136.78
        56         8.8204     20.0595     -7.3121      7.1893       49.79
        57       -62.5615     -3.2688    -27.7662    -31.1988      124.40
        58       -39.5063      6.6919      8.7715     -8.0143      108.71
        59        -0.0854     -9.7244     -0.4050     -3.4049      139.68
        60         4.6193     -5.3929     10.7258      3.3174       84.32
 1/2[<0|r|b>*<b|rxdel|0> + (<0|rxdel|b>*<b|r|0>)*]
 Rotatory Strengths (R) in cgs (10**-40 erg-esu-cm/Gauss)
       state          XX          YY          ZZ     R(length)
         1       155.1353    824.0384   -465.8721    171.1005
         2        13.3292     12.6712    -34.0063     -2.6686
         3        30.5567     -0.5460     -1.5333      9.4925
         4         0.0800      0.6101      2.5420      1.0773
         5       -41.2367    -68.6003    -38.6019    -49.4796
         6       -24.8318      2.8309    -42.5463    -21.5158
         7       197.8955   -140.2653      6.6121     21.4141
         8        11.3694      1.4845    -43.8754    -10.3405
         9       -51.7964     53.1510     -2.5006     -0.3820
        10       229.4234    -81.8922     -3.8771     47.8847
        11       -19.8090     -3.3040   -152.8083    -58.6404
        12       -38.4675     55.7622    -26.7298     -3.1450
        13       -79.9502      0.8832   -118.8844    -65.9838
        14         4.6558    -56.8452   -209.0329    -87.0741
        15      -425.3819   -162.8836    305.0409    -94.4082
        16       -76.1036   -181.5074    133.7222    -41.2963
        17      -151.0541    111.8453    -21.4050    -20.2046
        18       -44.8735   -329.0988     37.9616   -112.0036
        19        -0.7683   1249.2997    459.3031    569.2781
        20       -39.6843   -170.5142     18.7299    -63.8229
        21        -9.2455   -467.7870   -499.9203   -325.6509
        22      1142.7169    309.8487   -115.8208    445.5816
        23        -3.4896      6.6551    -59.1466    -18.6604
        24       209.6652     29.4416      2.2939     80.4669
        25       114.5845    167.9441     34.4505    105.6597
        26       317.9603    -61.7333      0.2867     85.5045
        27        56.8480   -230.9235   -506.3282   -226.8013
        28      -153.0597   -474.2962    -51.2808   -226.2122
        29       -14.6658     66.0103    -70.6086     -6.4214
        30        -2.3550     69.7240   -437.4645   -123.3652
        31      -234.3534    -39.4707   -145.3038   -139.7093
        32        31.4096     48.5510    295.7945    125.2517
        33       105.1641   -163.5849     -9.3568    -22.5925
        34      -152.5065    131.8246   -327.0657   -115.9159
        35       102.7055    -75.6362     41.9263     22.9985
        36        76.2208    -13.0186      0.9421     21.3815
        37        12.7119     22.2931    -14.6964      6.7695
        38       328.9347      2.4074     -7.8728    107.8231
        39       -20.6556     68.3961    -27.2764      6.8214
        40        15.3646      1.3377    -24.9144     -2.7374
        41         2.8614      1.9626     28.7863     11.2034
        42        38.2340      0.4069    -30.8562      2.5949
        43      -128.8208     -3.7661    -84.0883    -72.2251
        44        -7.7782     30.5844     72.5628     31.7897
        45        13.1471    -15.1892     -3.2861     -1.7761
        46       -76.1463    -50.1305     24.5152    -33.9206
        47       -11.1997    -20.7033      1.5117    -10.1304
        48       -20.1448    -16.5332    -20.8585    -19.1788
        49        -3.5991     90.5320    -38.0830     16.2833
        50         0.8546     -7.5296    -63.9531    -23.5427
        51        -6.2809     -4.5578      8.1819     -0.8856
        52         2.7406     76.5828      1.4913     26.9382
        53         4.2660      4.8758    -11.6485     -0.8355
        54       -60.8797     67.3378    170.2458     58.9013
        55        19.6747   -111.0823   -146.9995    -79.4690
        56         9.4912      5.0421      6.3807      6.9714
        57        -4.1147    -60.7943    -42.1280    -35.6790
        58         9.2576    -23.8682     -7.5104     -7.3737
        59        -9.9704     -0.1115      0.7225     -3.1198
        60         4.8133     -6.8615     11.1089      3.0202
  1/2[<0|del|b>*<b|r|0> + (<0|r|b>*<b|del|0>)*] (Au)
       state          X           Y           Z        Dip. S.   Osc.(frdel)
         1        -0.0990     -0.1157     -0.0130      0.2277      0.1518
         2        -0.0272     -0.0049     -0.0017      0.0338      0.0225
         3        -0.0177      0.0000     -0.0030      0.0207      0.0138
         4         0.0000     -0.0001     -0.0003      0.0003      0.0002
         5        -0.0396     -0.0220     -0.0015      0.0631      0.0420
         6        -0.0116      0.0000     -0.0042      0.0158      0.0105
         7        -0.0998     -0.0451     -0.0129      0.1577      0.1052
         8        -0.0403     -0.0034     -0.0219      0.0656      0.0437
         9        -0.0197     -0.0559      0.0000      0.0756      0.0504
        10        -0.1607     -0.0875     -0.0034      0.2516      0.1677
        11        -0.1307     -0.0134     -0.0076      0.1517      0.1011
        12        -0.1125     -0.0284     -0.0009      0.1417      0.0945
        13        -0.0051      0.0000     -0.0109      0.0161      0.0107
        14        -0.0003     -0.1863     -0.0580      0.2446      0.1631
        15        -0.2728     -0.0730     -0.0437      0.3895      0.2597
        16        -0.3000     -0.0313     -0.2063      0.5376      0.3584
        17        -0.0836     -0.0174     -0.0187      0.1197      0.0798
        18        -0.0093     -0.1113     -0.0003      0.1209      0.0806
        19        -0.0001     -0.2017     -0.0491      0.2510      0.1673
        20        -0.0024     -0.0352     -0.0070      0.0446      0.0297
        21        -0.1301     -0.0573     -0.1197      0.3071      0.2047
        22        -0.5865     -0.5347     -0.0200      1.1412      0.7608
        23        -0.0134     -0.0006     -0.0821      0.0961      0.0641
        24        -0.1140     -0.0073      0.0000      0.1213      0.0809
        25        -0.1208     -0.0915     -0.0019      0.2142      0.1428
        26        -0.2355     -0.0082      0.0000      0.2436      0.1624
        27        -0.0003     -0.0778     -0.1694      0.2475      0.1650
        28        -0.0243     -0.3680     -0.0892      0.4815      0.3210
        29        -0.0568     -0.0277     -0.0061      0.0905      0.0604
        30        -0.0283     -0.0144     -0.1125      0.1552      0.1034
        31        -0.0565     -0.0034     -0.1626      0.2225      0.1483
        32        -0.0403     -0.0013     -0.1919      0.2335      0.1556
        33        -0.0281     -0.0400     -0.0096      0.0777      0.0518
        34        -0.0435     -0.0263     -0.1375      0.2073      0.1382
        35        -0.1164     -0.0136     -0.0074      0.1373      0.0916
        36        -0.0264     -0.0054     -0.0002      0.0320      0.0213
        37        -0.0007     -0.0031     -0.0075      0.0112      0.0075
        38        -0.0795     -0.0008     -0.0163      0.0966      0.0644
        39        -0.0016     -0.0556     -0.0062      0.0634      0.0423
        40        -0.0021     -0.0007     -0.0200      0.0228      0.0152
        41        -0.0008     -0.0006     -0.0077      0.0091      0.0060
        42        -0.0153     -0.0003     -0.0138      0.0293      0.0195
        43        -0.0676      0.0000     -0.0592      0.1269      0.0846
        44        -0.0191     -0.0013     -0.0325      0.0529      0.0353
        45        -0.0044     -0.0155     -0.0009      0.0209      0.0139
        46        -0.0424     -0.0024     -0.0032      0.0480      0.0320
        47        -0.0035     -0.0099      0.0000      0.0134      0.0089
        48        -0.0078     -0.0012     -0.0142      0.0231      0.0154
        49        -0.0026     -0.0176     -0.0124      0.0327      0.0218
        50        -0.0001     -0.0002     -0.0079      0.0082      0.0055
        51        -0.0155     -0.0035     -0.0072      0.0263      0.0175
        52        -0.0001     -0.0123      0.0000      0.0125      0.0083
        53        -0.0007     -0.0001     -0.0012      0.0019      0.0013
        54        -0.0583     -0.0446     -0.0366      0.1394      0.0930
        55        -0.0470     -0.0306     -0.0684      0.1460      0.0974
        56        -0.0037     -0.0002     -0.0032      0.0072      0.0048
        57        -0.0008     -0.0248     -0.0014      0.0271      0.0180
        58        -0.0002     -0.0093     -0.0002      0.0097      0.0065
        59        -0.0013      0.0000      0.0000      0.0013      0.0009
        60        -0.0219     -0.0017     -0.0003      0.0239      0.0159

 Excitation energies and oscillator strengths:
 
 Excited State   1:      Singlet-A      4.3664 eV  283.95 nm  f=0.1463  <S**2>=0.000
     103 ->104         0.68518
 This state for optimization and/or second-order correction.
 Total Energy, E(TD-HF/TD-KS) =  -1266.00936742    
 Copying the excited state density for this state as the 1-particle RhoCI density.
 
 Excited State   2:      Singlet-A      5.1841 eV  239.16 nm  f=0.0227  <S**2>=0.000
      97 ->105         0.27714
      98 ->105         0.14524
      99 ->106        -0.20011
      99 ->107        -0.13139
     100 ->105         0.13611
     100 ->106        -0.17406
     100 ->107        -0.12308
     101 ->105        -0.21479
     102 ->105         0.34540
     103 ->105         0.19754
 
 Excited State   3:      Singlet-A      5.3733 eV  230.74 nm  f=0.0139  <S**2>=0.000
      97 ->106        -0.12895
      97 ->110        -0.13306
      98 ->107         0.15143
      98 ->110         0.15127
      99 ->109         0.13575
     100 ->108        -0.11154
     101 ->107         0.19917
     101 ->108        -0.22331
     101 ->109         0.12471
     102 ->106         0.31781
     102 ->108        -0.13531
     102 ->109         0.16703
     102 ->110         0.16408
 
 Excited State   4:      Singlet-A      5.4226 eV  228.64 nm  f=0.0002  <S**2>=0.000
      97 ->106        -0.11215
      98 ->106         0.18082
      98 ->107        -0.14169
      98 ->108        -0.16124
      98 ->109         0.12496
      98 ->110        -0.13170
      99 ->108        -0.15500
      99 ->109        -0.14036
     100 ->104         0.10578
     100 ->108         0.14493
     100 ->109         0.19084
     101 ->107         0.16430
     101 ->109         0.12566
     102 ->107         0.16003
     102 ->108        -0.11806
     102 ->109        -0.11396
     102 ->110         0.21360
     103 ->109         0.14929
 
 Excited State   5:      Singlet-A      5.6633 eV  218.92 nm  f=0.0422  <S**2>=0.000
      96 ->104         0.15154
      99 ->104        -0.19115
      99 ->105         0.24171
     100 ->105         0.11801
     102 ->104        -0.17135
     102 ->106         0.11710
     103 ->105         0.43657
 
 Excited State   6:      Singlet-A      5.7436 eV  215.87 nm  f=0.0117  <S**2>=0.000
      94 ->104        -0.10192
      95 ->104        -0.24262
      96 ->104         0.48097
      99 ->104        -0.17835
     100 ->104        -0.16109
     101 ->104         0.13706
     102 ->104         0.10360
     103 ->105        -0.17088
 
 Excited State   7:      Singlet-A      5.7630 eV  215.14 nm  f=0.1058  <S**2>=0.000
      99 ->104         0.13027
     100 ->104        -0.13861
     102 ->104         0.43006
     102 ->106        -0.10849
     102 ->107         0.14070
     102 ->109         0.10843
     103 ->105         0.32578
 
 Excited State   8:      Singlet-A      5.8572 eV  211.68 nm  f=0.0435  <S**2>=0.000
      97 ->106         0.13014
      99 ->105         0.27534
      99 ->106        -0.11076
     100 ->104        -0.11584
     100 ->105         0.30874
     101 ->105        -0.14842
     101 ->106        -0.13953
     102 ->107         0.24850
     103 ->105        -0.23569
     103 ->106         0.14678
 
 Excited State   9:      Singlet-A      5.9928 eV  206.89 nm  f=0.0507  <S**2>=0.000
      94 ->104        -0.20144
      98 ->104         0.31763
     100 ->104         0.32694
     101 ->106        -0.15656
     101 ->110        -0.12575
     102 ->106        -0.13689
     102 ->107         0.17710
     102 ->108        -0.18010
     102 ->109         0.12470
 
 Excited State  10:      Singlet-A      6.0317 eV  205.56 nm  f=0.1710  <S**2>=0.000
      94 ->104        -0.28416
      97 ->104         0.13255
      99 ->105         0.13279
     100 ->104         0.14559
     100 ->105         0.14534
     101 ->106         0.10776
     101 ->110         0.11530
     102 ->104         0.32192
     102 ->106         0.21352
     102 ->107        -0.15518
     102 ->109        -0.13361
 
 Excited State  11:      Singlet-A      6.0764 eV  204.04 nm  f=0.1026  <S**2>=0.000
      93 ->104         0.10275
      96 ->104         0.21575
      98 ->104        -0.18775
      98 ->109        -0.10431
      99 ->104         0.26453
     100 ->104         0.37304
     102 ->104        -0.13807
     102 ->108         0.13667
     103 ->106         0.11259
     103 ->108        -0.11372
 
 Excited State  12:      Singlet-A      6.1268 eV  202.36 nm  f=0.0957  <S**2>=0.000
      94 ->104         0.11581
      95 ->104        -0.13642
      96 ->104         0.11771
      98 ->104        -0.12282
      98 ->109         0.14533
      99 ->104         0.31705
      99 ->107        -0.12302
[...]
    49  H   -0.000092  -0.000349   0.008289  -0.047027   0.400699  -0.028736
    50  H    0.002538   0.009765  -0.001371   0.008476  -0.045403   0.394465
              31         32         33         34         35         36
     1  O    0.354262   0.014538  -0.000010   0.000000   0.000001   0.000112
     2  C   -0.050358  -0.016824  -0.000273   0.000024  -0.000211  -0.017767
     3  C    0.012702  -0.045544   0.008950  -0.000367   0.009646  -0.059584
     4  C   -0.001894   0.407200  -0.040116   0.008480  -0.000329   0.009996
     5  C   -0.000031  -0.044273   0.406424  -0.044642   0.008227  -0.001150
     6  C   -0.000001   0.009418  -0.046479   0.409071  -0.048314   0.010355
     7  C    0.000017  -0.001234   0.008102  -0.043028   0.404672  -0.041005
     8  C    0.000294   0.010497  -0.000098   0.008879  -0.035766   0.406684
     9  C   -0.000784  -0.000670   0.000005   0.000001  -0.000009  -0.001047
    10  C    0.000734   0.000629  -0.000001   0.000000   0.000000  -0.000140
    11  C    0.000182   0.000006   0.000000   0.000000   0.000000  -0.000002
    12  C   -0.000003  -0.000009   0.000000   0.000000   0.000000   0.000001
    13  C   -0.000001   0.000000   0.000000   0.000000   0.000002   0.000103
    14  C   -0.000268   0.000433   0.000003  -0.000001   0.000035  -0.000017
    15  C   -0.020772   0.001703   0.000004   0.000000   0.000012   0.001405
    16  O    0.045155   0.000001   0.000000   0.000000   0.000000   0.000125
    17  C    0.001037  -0.000002   0.000000   0.000000   0.000003   0.001411
    18  C    0.000288  -0.000004   0.000000   0.000000   0.000000   0.000131
    19  C    0.000007   0.000000   0.000000   0.000000   0.000000  -0.000169
    20  C    0.000000   0.000000   0.000000   0.000000   0.000000  -0.000031
    21  C    0.000002   0.000000   0.000000   0.000000   0.000000   0.000014
    22  C   -0.000138   0.000002   0.000000   0.000000   0.000010   0.001984
    23  C   -0.000081   0.000000   0.000000   0.000000   0.000002  -0.000292
    24  C    0.000431   0.000006   0.000000   0.000000   0.000003  -0.001455
    25  O    0.000012   0.000000   0.000000   0.000000   0.000000  -0.000013
    26  C   -0.006236  -0.000098   0.000000   0.000000  -0.000018   0.000193
    27  C    0.003209  -0.000657   0.000008   0.000004   0.000028  -0.000731
    28  C    0.000742  -0.000043   0.000001   0.000003  -0.000007   0.000098
    29  C   -0.000004   0.000002   0.000000  -0.000001   0.000052  -0.000210
    30  C   -0.000010  -0.000001   0.000000   0.000000   0.000016   0.000502
    31  H    0.491968  -0.000805  -0.000001   0.000000   0.000000  -0.000012
    32  H   -0.000805   0.674536  -0.012473  -0.000160   0.000038  -0.000098
    33  H   -0.000001  -0.012473   0.666436  -0.012017  -0.000190   0.000046
    34  H    0.000000  -0.000160  -0.012017   0.666233  -0.011934  -0.000200
    35  H    0.000000   0.000038  -0.000190  -0.011934   0.668759  -0.014631
    36  H   -0.000012  -0.000098   0.000046  -0.000200  -0.014631   0.706446
    37  H   -0.000477   0.000134   0.000000   0.000000   0.000000  -0.000001
    38  H    0.000005  -0.000001   0.000000   0.000000   0.000000   0.000000
    39  H    0.000000   0.000000   0.000000   0.000000   0.000000   0.000000
    40  H    0.000000   0.000000   0.000000   0.000000   0.000000   0.000002
    41  H   -0.000024  -0.000055   0.000001   0.000003  -0.000037   0.001193
    42  H   -0.000065   0.000005   0.000000   0.000000   0.000000   0.000060
    43  H    0.000000   0.000000   0.000000   0.000000   0.000000   0.000002
    44  H    0.000000   0.000000   0.000000   0.000000   0.000000   0.000001
    45  H    0.000000   0.000000   0.000000   0.000000   0.000000   0.000004
    46  H    0.000001   0.000000   0.000000   0.000000   0.000001   0.000050
    47  H   -0.002946   0.002013   0.000001  -0.000001   0.000012  -0.000076
    48  H   -0.000004  -0.000026   0.000002   0.000001  -0.000002   0.000011
    49  H    0.000000   0.000000   0.000000   0.000000   0.000000   0.000004
    50  H    0.000001   0.000000   0.000000   0.000000   0.000000   0.000004
              37         38         39         40         41         42
     1  O    0.024342  -0.000018   0.000000   0.000001   0.000041  -0.000134
     2  C   -0.022968  -0.000282   0.000021  -0.000243  -0.019386  -0.004173
     3  C    0.001396   0.000002   0.000000   0.000024   0.004285   0.000507
     4  C    0.000158   0.000001   0.000000   0.000007   0.000359   0.000012
     5  C    0.000006   0.000000   0.000000   0.000000  -0.000077   0.000000
     6  C    0.000000   0.000000   0.000000  -0.000001   0.000032   0.000000
     7  C    0.000000   0.000000   0.000000  -0.000001   0.001761  -0.000001
     8  C   -0.000077   0.000000   0.000000   0.000003   0.003130  -0.000024
     9  C   -0.050873   0.008545  -0.000389   0.009219  -0.045362  -0.003491
    10  C    0.410018  -0.039770   0.008457  -0.000166   0.011850  -0.003595
    11  C   -0.043869   0.407086  -0.044037   0.008124  -0.001274   0.002156
    12  C    0.009505  -0.046557   0.409015  -0.048463   0.009920   0.001483
    13  C   -0.001367   0.008176  -0.043049   0.405098  -0.044956  -0.004192
    14  C    0.011316  -0.000129   0.008766  -0.036383   0.405137  -0.006217
    15  C    0.001224   0.000003   0.000001   0.000007  -0.000373  -0.021627
    16  O   -0.000198   0.000000   0.000000   0.000000  -0.000004   0.000657
    17  C   -0.000309  -0.000003   0.000000  -0.000017   0.000260  -0.045923
    18  C   -0.000090   0.000022   0.000009   0.000067  -0.000247   0.413985
    19  C   -0.000007   0.000002  -0.000002   0.000068   0.000028  -0.053881
    20  C    0.000000   0.000000   0.000000   0.000000   0.000069   0.010890
    21  C    0.000000   0.000000   0.000000   0.000000   0.000009  -0.001319
    22  C   -0.000001   0.000000   0.000000  -0.000003  -0.000006   0.013624
    23  C    0.000000   0.000000   0.000000   0.000000  -0.000011  -0.000051
    24  C    0.000002   0.000000   0.000000   0.000000   0.000006  -0.000087
    25  O    0.000000   0.000000   0.000000   0.000000   0.000000   0.000017
    26  C   -0.000011   0.000000   0.000000   0.000000  -0.000111   0.000545
    27  C   -0.000049   0.000000   0.000000   0.000000   0.000015   0.000002
    28  C   -0.000002   0.000000   0.000000   0.000000   0.000000  -0.000001
    29  C    0.000000   0.000000   0.000000   0.000000   0.000000   0.000000
    30  C    0.000000   0.000000   0.000000   0.000000  -0.000001   0.000000
    31  H   -0.000477   0.000005   0.000000   0.000000  -0.000024  -0.000065
    32  H    0.000134  -0.000001   0.000000   0.000000  -0.000055   0.000005
    33  H    0.000000   0.000000   0.000000   0.000000   0.000001   0.000000
    34  H    0.000000   0.000000   0.000000   0.000000   0.000003   0.000000
    35  H    0.000000   0.000000   0.000000   0.000000  -0.000037   0.000000
    36  H   -0.000001   0.000000   0.000000   0.000002   0.001193   0.000060
    37  H    0.677769  -0.012630  -0.000159   0.000044  -0.000028   0.000314
    38  H   -0.012630   0.666424  -0.011905  -0.000194   0.000044  -0.000056
    39  H   -0.000159  -0.011905   0.664996  -0.011829  -0.000185   0.000030
    40  H    0.000044  -0.000194  -0.011829   0.668641  -0.013945  -0.000049
    41  H   -0.000028   0.000044  -0.000185  -0.013945   0.690554   0.000627
    42  H    0.000314  -0.000056   0.000030  -0.000049   0.000627   0.708355
    43  H   -0.000001   0.000002   0.000003   0.000012  -0.000022  -0.015176
    44  H    0.000000   0.000000   0.000000   0.000000   0.000000  -0.000190
    45  H    0.000000   0.000000   0.000000   0.000000   0.000001   0.000035
    46  H    0.000000   0.000000   0.000000   0.000000   0.000000   0.000009
    47  H   -0.000079   0.000000   0.000000   0.000000  -0.000002   0.000003
    48  H    0.000000   0.000000   0.000000   0.000000   0.000000   0.000000
    49  H    0.000000   0.000000   0.000000   0.000000   0.000000   0.000000
    50  H    0.000000   0.000000   0.000000   0.000000   0.000000   0.000000
              43         44         45         46         47         48
     1  O    0.000000   0.000000   0.000000   0.000000   0.033879  -0.000021
     2  C    0.000010   0.000000   0.000003  -0.000018   0.008098   0.000040
     3  C    0.000000   0.000000   0.000000  -0.000010  -0.013423  -0.000002
     4  C    0.000000   0.000000   0.000000   0.000000   0.002885   0.000082
     5  C    0.000000   0.000000   0.000000   0.000000   0.000095   0.000129
     6  C    0.000000   0.000000   0.000000   0.000000  -0.000040   0.000062
     7  C    0.000000   0.000000   0.000000   0.000007  -0.000125   0.000003
     8  C    0.000000   0.000000  -0.000002   0.000012  -0.001544   0.000002
     9  C   -0.000026   0.000001   0.000000   0.000000   0.002279   0.000000
    10  C   -0.000005   0.000000   0.000000   0.000000  -0.000103   0.000000
    11  C    0.000062   0.000000   0.000000   0.000000  -0.000002   0.000000
    12  C    0.000209   0.000000   0.000000   0.000000   0.000000   0.000000
    13  C    0.000413  -0.000001   0.000000   0.000000   0.000001   0.000000
    14  C    0.000079   0.000003   0.000000   0.000000  -0.000015   0.000000
    15  C   -0.000272   0.000021  -0.000188  -0.001429  -0.023878  -0.000304
    16  O    0.000002   0.000000   0.000002  -0.000116  -0.002891  -0.000076
    17  C    0.009443   0.000086   0.011017   0.011497  -0.000824   0.000005
    18  C   -0.035858   0.008055  -0.000573  -0.000027  -0.000035   0.000000
    19  C    0.408127  -0.044110   0.008322  -0.000077   0.000000   0.000000
    20  C   -0.049419   0.407717  -0.046367   0.000618   0.000000   0.000000
    21  C    0.008363  -0.039251   0.406998  -0.012831   0.000001   0.000000
    22  C   -0.000058   0.008312  -0.035987  -0.032335   0.000070  -0.000001
    23  C    0.000028  -0.000265  -0.014688   0.411783  -0.000093   0.000018
    24  C    0.000000   0.000002   0.000982  -0.032765   0.010605  -0.000224
    25  O    0.000000   0.000002   0.000218  -0.022932  -0.000029   0.000003
    26  C    0.000002   0.000000  -0.000033   0.002856  -0.017439   0.008764
    27  C    0.000000   0.000000  -0.000001   0.000156   0.377722  -0.020231
    28  C    0.000000   0.000000   0.000000  -0.000043  -0.040179   0.395899
    29  C    0.000000   0.000000  -0.000001  -0.000043   0.008633  -0.050554
    30  C    0.000000   0.000000  -0.000019  -0.002833  -0.001365   0.008066
    31  H    0.000000   0.000000   0.000000   0.000001  -0.002946  -0.000004
    32  H    0.000000   0.000000   0.000000   0.000000   0.002013  -0.000026
    33  H    0.000000   0.000000   0.000000   0.000000   0.000001   0.000002
    34  H    0.000000   0.000000   0.000000   0.000000  -0.000001   0.000001
    35  H    0.000000   0.000000   0.000000   0.000001   0.000012  -0.000002
    36  H    0.000002   0.000001   0.000004   0.000050  -0.000076   0.000011
    37  H   -0.000001   0.000000   0.000000   0.000000  -0.000079   0.000000
    38  H    0.000002   0.000000   0.000000   0.000000   0.000000   0.000000
    39  H    0.000003   0.000000   0.000000   0.000000   0.000000   0.000000
    40  H    0.000012   0.000000   0.000000   0.000000   0.000000   0.000000
    41  H   -0.000022   0.000000   0.000001   0.000000  -0.000002   0.000000
    42  H   -0.015176  -0.000190   0.000035   0.000009   0.000003   0.000000
    43  H    0.663659  -0.011490  -0.000194  -0.000001   0.000000   0.000000
    44  H   -0.011490   0.655348  -0.011463   0.000007   0.000000   0.000000
    45  H   -0.000194  -0.011463   0.662502   0.002981   0.000000   0.000000
    46  H   -0.000001   0.000007   0.002981   0.636460   0.000003  -0.000001
    47  H    0.000000   0.000000   0.000000   0.000003   0.670240  -0.014953
    48  H    0.000000   0.000000   0.000000  -0.000001  -0.014953   0.657141
    49  H    0.000000   0.000000   0.000000   0.000002  -0.000117  -0.010585
    50  H    0.000000   0.000000   0.000014  -0.000188   0.000009  -0.000153
              49         50
     1  O    0.000000   0.000000
     2  C    0.000000   0.000003
     3  C   -0.000003   0.000003
     4  C    0.000000   0.000000
     5  C    0.000000   0.000000
     6  C    0.000000   0.000000
     7  C    0.000003   0.000001
     8  C    0.000010   0.000008
     9  C    0.000000   0.000000
    10  C    0.000000   0.000000
    11  C    0.000000   0.000000
    12  C    0.000000   0.000000
    13  C    0.000000   0.000000
    14  C    0.000000   0.000000
    15  C    0.000021  -0.000100
    16  O    0.000003  -0.000040
    17  C    0.000002  -0.000089
    18  C    0.000000   0.000000
    19  C    0.000000   0.000000
    20  C    0.000000  -0.000001
    21  C    0.000000  -0.000006
    22  C   -0.000002   0.001219
    23  C   -0.000249  -0.009503
    24  C    0.008544  -0.022415
    25  O   -0.000092   0.002538
    26  C   -0.000349   0.009765
    27  C    0.008289  -0.001371
    28  C   -0.047027   0.008476
    29  C    0.400699  -0.045403
    30  C   -0.028736   0.394465
    31  H    0.000000   0.000001
    32  H    0.000000   0.000000
    33  H    0.000000   0.000000
    34  H    0.000000   0.000000
    35  H    0.000000   0.000000
    36  H    0.000004   0.000004
    37  H    0.000000   0.000000
    38  H    0.000000   0.000000
    39  H    0.000000   0.000000
    40  H    0.000000   0.000000
    41  H    0.000000   0.000000
    42  H    0.000000   0.000000
    43  H    0.000000   0.000000
    44  H    0.000000   0.000000
    45  H    0.000000   0.000014
    46  H    0.000002  -0.000188
    47  H   -0.000117   0.000009
    48  H   -0.010585  -0.000153
    49  H    0.654138  -0.012981
    50  H   -0.012981   0.656992
 Mulliken charges:
               1
     1  O   -0.255395
     2  C    0.028251
     3  C   -0.008727
     4  C    0.015716
     5  C   -0.004798
     6  C   -0.014922
     7  C   -0.004675
     8  C   -0.010101
     9  C   -0.027075
    10  C    0.000451
    11  C    0.002229
    12  C   -0.013705
    13  C    0.005368
    14  C   -0.003592
    15  C   -0.015965
    16  O   -0.287433
    17  C    0.049752
    18  C    0.026378
    19  C    0.003033
    20  C    0.007164
    21  C   -0.011981
    22  C    0.009574
    23  C    0.087612
    24  C    0.027172
    25  O   -0.288892
    26  C    0.093225
    27  C    0.051338
    28  C    0.009629
    29  C    0.006637
    30  C    0.044266
    31  H    0.173869
    32  H    0.001815
    33  H    0.021677
    34  H    0.019654
    35  H    0.019931
    36  H   -0.002304
    37  H   -0.003031
    38  H    0.021234
    39  H    0.020255
    40  H    0.019980
    41  H   -0.003219
    42  H    0.006938
    43  H    0.022109
    44  H    0.027217
    45  H    0.016439
    46  H    0.039206
    47  H    0.003610
    48  H    0.026907
    49  H    0.028427
    50  H    0.018753
 Sum of Mulliken charges =   0.00000
 Mulliken charges with hydrogens summed into heavy atoms:
               1
     1  O   -0.081526
     2  C    0.028251
     3  C   -0.008727
     4  C    0.017531
     5  C    0.016878
     6  C    0.004733
     7  C    0.015256
     8  C   -0.012405
     9  C   -0.027075
    10  C   -0.002580
    11  C    0.023462
    12  C    0.006551
    13  C    0.025348
    14  C   -0.006811
    15  C   -0.015965
    16  O   -0.287433
    17  C    0.049752
    18  C    0.033316
    19  C    0.025142
    20  C    0.034381
    21  C    0.004458
    22  C    0.009574
    23  C    0.126818
    24  C    0.027172
    25  O   -0.288892
    26  C    0.093225
    27  C    0.054948
    28  C    0.036537
    29  C    0.035063
    30  C    0.063019
 Electronic spatial extent (au):  <R**2>=           9086.6191
 Charge=              0.0000 electrons
 Dipole moment (field-independent basis, Debye):
    X=              0.0427    Y=              0.0601    Z=              3.9330  Tot=              3.9337
 Quadrupole moment (field-independent basis, Debye-Ang):
   XX=           -152.3265   YY=           -164.9054   ZZ=           -166.0103
   XY=             12.0267   XZ=             -9.2425   YZ=             10.3422
 Traceless Quadrupole moment (field-independent basis, Debye-Ang):
   XX=              8.7543   YY=             -3.8247   ZZ=             -4.9296
   XY=             12.0267   XZ=             -9.2425   YZ=             10.3422
 Octapole moment (field-independent basis, Debye-Ang**2):
  XXX=              1.9761  YYY=             -6.3519  ZZZ=             -5.4176  XYY=             -9.1822
  XXY=              9.6892  XXZ=             12.6616  XZZ=              6.1366  YZZ=             -1.5211
  YYZ=             46.9250  XYZ=            -13.3434
 Hexadecapole moment (field-independent basis, Debye-Ang**3):
 XXXX=          -5403.3400 YYYY=          -4319.5768 ZZZZ=          -1559.0316 XXXY=            116.3438
 XXXZ=            -86.1233 YYYX=            122.9067 YYYZ=            131.8844 ZZZX=            -58.3999
 ZZZY=             -0.2707 XXYY=          -1806.3719 XXZZ=          -1247.3665 YYZZ=           -995.0757
 XXYZ=             77.3785 YYXZ=            -42.2596 ZZXY=             20.0764
 N-N= 2.943589337674D+03 E-N=-8.833043857897D+03  KE= 1.258045671526D+03
 1|1|UNPC-CHSHR-P01|SP|RwB97XD TD-FC|CC-pVDZ|C27H20O3|IBS|31-May-2024|0
 ||# td=(nstates=60) wb97xd/cc-pvdz scrf=(cpcm,solvent=n,n-DiMethylForm
 amide) geom=AllCheck guess=read maxdisk=900GB integral(ultrafinegrid)|
 |DE2_conf1||0,1|O,0,2.4546524197,4.6231804927,-3.7021178067|C,0,2.6225
 118794,4.4297574104,-2.3107626441|C,0,4.0291088819,4.8925483454,-1.901
 4870874|C,0,4.6262240799,5.9444016767,-2.6003878476|C,0,5.8938443633,6
 .4004319426,-2.2447135521|C,0,6.5773624824,5.8169728919,-1.1770586769|
 C,0,5.9800162204,4.7772147769,-0.4661277322|C,0,4.7139114129,4.3181279
 534,-0.8267495582|C,0,1.608156549,5.3380283821,-1.5882993849|C,0,0.478
 2302093,5.787766595,-2.2770783701|C,0,-0.4775883481,6.5780609074,-1.63
 85886649|C,0,-0.3100781231,6.9421603866,-0.303464865|C,0,0.8294636845,
 6.5210098077,0.3822487229|C,0,1.7827928251,5.7320786875,-0.2568519931|
 C,0,2.4860589623,2.874328105,-2.0280107071|O,0,2.1958383217,2.08910164
 38,-3.194583945|C,0,1.7762914661,2.3690852254,-0.7938198895|C,0,0.5560
 110304,2.9081836395,-0.3643682428|C,0,-0.0625402239,2.4643128167,0.801
 8436044|C,0,0.5265690875,1.465550685,1.5728759974|C,0,1.6919725568,0.8
 594710026,1.1160761774|C,0,2.2949164007,1.2764729827,-0.0737847918|C,0
 ,3.3676413419,0.4300555249,-0.6404592787|C,0,3.9614707622,0.7292344673
 ,-1.9594551509|O,0,2.9774754487,-0.29208777,-1.8174527545|C,0,3.537920
 7326,2.0124574167,-2.6682505659|C,0,4.5688885086,2.5813622421,-3.58562
 06821|C,0,5.7890600753,2.0467204255,-3.7308852424|C,0,6.1963303518,0.8
 408426686,-3.0140133255|C,0,5.3305273132,0.2127763388,-2.2104632377|H,
 0,2.1189713421,3.7825896262,-4.0562622011|H,0,4.0977344261,6.394053349
 9,-3.4414522943|H,0,6.3522997254,7.2158866198,-2.8075238364|H,0,7.5717
 674695,6.1717624035,-0.900531499|H,0,6.5036069959,4.3117736193,0.37079
 29972|H,0,4.2705736919,3.4936038721,-0.2642708917|H,0,0.3452587998,5.5
 064817461,-3.3206247099|H,0,-1.3578566018,6.9116155432,-2.1914386886|H
 ,0,-1.0578048961,7.5592661153,0.1978571005|H,0,0.9791628805,6.80772593
 13,1.4247132362|H,0,2.6623111005,5.4088469703,0.3005902033|H,0,0.06369
 76476,3.6823387909,-0.9451190007|H,0,-1.0098249505,2.9110650292,1.1072
 709321|H,0,0.0605934469,1.1322090095,2.5013293041|H,0,2.1279681546,0.0
 239239994,1.6676267689|H,0,3.9572772528,-0.1560045619,0.0718392068|H,0
 ,4.2776883203,3.4502968934,-4.1693201342|H,0,6.4921376354,2.5030817265
 ,-4.4296250268|H,0,7.1990700764,0.4411274035,-3.1713412311|H,0,5.58322
 68099,-0.7197517584,-1.7026987398||Version=EM64W-G09RevD.01|State=1-A|
 HF=-1266.1698297|RMSD=3.974e-009|PG=C01 [X(C27H20O3)]||@


 TIME IS NATURE'S WAY OF MAKING SURE EVERYTHING
 DOESN'T HAPPEN AT ONCE.
                     - WOODY ALLEN
 Job cpu time:       0 days  2 hours 48 minutes 14.0 seconds.
 File lengths (MBytes):  RWF=   4120 Int=      0 D2E=      0 Chk=    567 Scr=      1
 Normal termination of Gaussian 09 at Fri May 31 04:36:43 2024.
