 Entering Link 1 = C:\G09W\l1.exe PID=      5688.
  
 Copyright (c) 1988,1990,1992,1993,1995,1998,2003,2009,2013,
            Gaussian, Inc.  All Rights Reserved.
  
 This is part of the Gaussian(R) 09 program.  It is based on
 the Gaussian(R) 03 system (copyright 2003, Gaussian, Inc.),
 the Gaussian(R) 98 system (copyright 1998, Gaussian, Inc.),
 the Gaussian(R) 94 system (copyright 1995, Gaussian, Inc.),
 the Gaussian 92(TM) system (copyright 1992, Gaussian, Inc.),
 the Gaussian 90(TM) system (copyright 1990, Gaussian, Inc.),
 the Gaussian 88(TM) system (copyright 1988, Gaussian, Inc.),
 the Gaussian 86(TM) system (copyright 1986, Carnegie Mellon
 University), and the Gaussian 82(TM) system (copyright 1983,
 Carnegie Mellon University). Gaussian is a federally registered
 trademark of Gaussian, Inc.
  
 This software contains proprietary and confidential information,
 including trade secrets, belonging to Gaussian, Inc.
  
 This software is provided under written license and may be
 used, copied, transmitted, or stored only in accord with that
 written license.
  
 The following legend is applicable only to US Government
 contracts under FAR:
  
                    RESTRICTED RIGHTS LEGEND
  
 Use, reproduction and disclosure by the US Government is
 subject to restrictions as set forth in subparagraphs (a)
 and (c) of the Commercial Computer Software - Restricted
 Rights clause in FAR 52.227-19.
  
 Gaussian, Inc.
 340 Quinnipiac St., Bldg. 40, Wallingford CT 06492
  
  
 ---------------------------------------------------------------
 Warning -- This program may not be used in any manner that
 competes with the business of Gaussian, Inc. or will provide
 assistance to any competitor of Gaussian, Inc.  The licensee
 of this program is prohibited from giving any competitor of
 Gaussian, Inc. access to this program.  By using this program,
 the user acknowledges that Gaussian, Inc. is engaged in the
 business of creating and licensing software in the field of
 computational chemistry and represents and warrants to the
 licensee that it is not a competitor of Gaussian, Inc. and that
 it will not use this program in any manner prohibited above.
 ---------------------------------------------------------------
  

 Cite this work as:
 Gaussian 09, Revision D.01,
 M. J. Frisch, G. W. Trucks, H. B. Schlegel, G. E. Scuseria, 
 M. A. Robb, J. R. Cheeseman, G. Scalmani, V. Barone, B. Mennucci, 
 G. A. Petersson, H. Nakatsuji, M. Caricato, X. Li, H. P. Hratchian, 
 A. F. Izmaylov, J. Bloino, G. Zheng, J. L. Sonnenberg, M. Hada, 
 M. Ehara, K. Toyota, R. Fukuda, J. Hasegawa, M. Ishida, T. Nakajima, 
 Y. Honda, O. Kitao, H. Nakai, T. Vreven, J. A. Montgomery, Jr., 
 J. E. Peralta, F. Ogliaro, M. Bearpark, J. J. Heyd, E. Brothers, 
 K. N. Kudin, V. N. Staroverov, T. Keith, R. Kobayashi, J. Normand, 
 K. Raghavachari, A. Rendell, J. C. Burant, S. S. Iyengar, J. Tomasi, 
 M. Cossi, N. Rega, J. M. Millam, M. Klene, J. E. Knox, J. B. Cross, 
 V. Bakken, C. Adamo, J. Jaramillo, R. Gomperts, R. E. Stratmann, 
 O. Yazyev, A. J. Austin, R. Cammi, C. Pomelli, J. W. Ochterski, 
 R. L. Martin, K. Morokuma, V. G. Zakrzewski, G. A. Voth, 
 P. Salvador, J. J. Dannenberg, S. Dapprich, A. D. Daniels, 
 O. Farkas, J. B. Foresman, J. V. Ortiz, J. Cioslowski, 
 and D. J. Fox, Gaussian, Inc., Wallingford CT, 2013.
 
 ******************************************
 Gaussian 09:  EM64W-G09RevD.01 13-Apr-2013
                20-May-2024 
 ******************************************
 %nprocshared=15
 Will use up to   15 processors via shared memory.
 %mem=50GB
 %chk=D:\Yaroslav\pink-mystery\G1\opt-wb\G1.chk
 ----------------------------------------------------------------------
 # td=(nstates=60) wb97xd/cc-pvdz scrf=(cpcm,solvent=n,n-DiMethylFormam
 ide) geom=AllCheck guess=read maxdisk=900GB integral(ultrafinegrid)
 ----------------------------------------------------------------------
 1/29=7,38=1/1;
 2/12=2,40=1/2;
 3/5=16,11=9,14=-4,16=1,25=1,30=1,70=2101,72=148,74=-58,75=-5,116=-2/1,2,8,3;
 4/5=1/1;
 5/5=2,38=6,53=148/2;
 8/6=1,10=1,108=60/1;
 9/41=60,42=1,70=2/14;
 6/7=2,8=2,9=2,10=2/1;
 99/5=1,9=1/99;
 Structure from the checkpoint file:  "D:\Yaroslav\pink-mystery\G1\opt-wb\G1.chk"
 --
 G1
 --
 Charge =  0 Multiplicity = 1
 Redundant internal coordinates found in file.
 C,0,-3.0010869139,-1.1964805878,4.668513835
 C,0,-2.8182224508,0.1383034023,4.3047563853
 C,0,-1.7143689534,0.5105171966,3.539760672
 C,0,-0.7880268604,-0.4496903822,3.1233295866
 C,0,-0.9732859708,-1.7958529904,3.4933085152
 C,0,-2.0779179414,-2.1591192714,4.2674133457
 C,0,0.4369128962,-0.1623276457,2.3242840353
 C,0,1.6280117646,-0.8758041001,2.8650041317
 C,0,1.4435839984,-2.2205609448,3.2404683888
 C,0,0.0687712716,-2.7624952595,3.0462502428
 C,0,2.8752337642,-0.2703170631,3.0359896964
 C,0,3.9393907437,-0.9934762751,3.5692873421
 C,0,3.7581789101,-2.3254758565,3.9439166092
 C,0,2.5148612102,-2.9345923211,3.7845723626
 C,0,-0.213477097,-3.9124174672,2.3973843851
 C,0,0.4457324536,0.5231438628,1.1610665801
 C,0,-1.6051534357,-4.302039235,2.0151232445
 C,0,0.8553747265,-4.8096133773,1.856384372
 C,0,1.6454863192,0.5867743013,0.2715522827
 C,0,-0.7921517647,1.1332496952,0.5818343538
 C,0,-2.1314068349,-5.5499163479,2.3701504119
 C,0,-3.4245172018,-5.9076619256,1.9899307422
 C,0,-4.2012819125,-5.0319472098,1.2306481619
 C,0,-3.676297604,-3.7956663637,0.8521018502
 C,0,-2.3890830243,-3.4346825005,1.2422878244
 C,0,1.3547753431,-5.8963966345,2.5815477559
 C,0,2.3407787295,-6.7182045906,2.0339704232
 C,0,2.8345947611,-6.4652618997,0.7542716809
 C,0,2.3308125952,-5.3914273252,0.0189346201
 C,0,1.3423395966,-4.5747211294,0.5648503148
 C,0,-1.1467798924,2.4658724938,0.8157477111
 C,0,-2.3017493228,3.0006966686,0.243541665
 C,0,-3.1117847003,2.2107146858,-0.5720764452
 C,0,-2.7566951259,0.8843770703,-0.8218325831
 C,0,-1.6001820973,0.3530815315,-0.254105354
 C,0,2.1594995543,1.8138168707,-0.1647326351
 C,0,3.2676347252,1.8573999985,-1.0102020822
 C,0,3.8635541268,0.6745940784,-1.4490629712
 C,0,3.3434027216,-0.5534171158,-1.0383005231
 C,0,2.2439119905,-0.5955743328,-0.1845914242
 H,0,-3.8592959595,-1.486846026,5.2769031728
 H,0,-3.5321210156,0.8978572474,4.6279557728
 H,0,-1.5647562648,1.5569123014,3.2762932082
 H,0,-2.2127182006,-3.2033741788,4.5540205576
 H,0,3.0096505392,0.7732986906,2.7468859751
 H,0,4.9097359366,-0.5126236416,3.7041333563
 H,0,4.5857910937,-2.8918755559,4.3743587539
 H,0,2.3728141384,-3.9681395782,4.0981735804
 H,0,-1.5286236542,-6.2451988497,2.9579459462
 H,0,-3.8267950241,-6.8779494403,2.2870992456
 H,0,-5.2117163751,-5.3145516671,0.929965026
 H,0,-4.271025561,-3.1068071343,0.2490432082
 H,0,-1.9830218411,-2.4642556095,0.9523227113
 H,0,0.9817594657,-6.0909045016,3.5895606918
 H,0,2.7294702161,-7.5566643535,2.6149026827
 H,0,3.6098737369,-7.1051297002,0.3292440714
 H,0,2.7077207861,-5.1885963896,-0.9852537661
 H,0,0.9377272275,-3.7421501128,-0.0154165496
 H,0,-0.5236711643,3.0851098551,1.4648581801
 H,0,-2.5726544359,4.0391731583,0.4429283053
 H,0,-4.0179387248,2.6282944006,-1.0143986205
 H,0,-3.3818765048,0.2599005726,-1.4627472762
 H,0,-1.3142517609,-0.6810325222,-0.4601298974
 H,0,1.6955418901,2.7448411962,0.1672381469
 H,0,3.6665426895,2.8219233388,-1.3298290982
 H,0,4.7282352669,0.7096562975,-2.114157647
 H,0,3.7949474654,-1.4854085557,-1.383853793
 H,0,1.8433829364,-1.5565609449,0.1421745451
 Recover connectivity data from disk.
 Stoichiometry    C40H28
 Framework group  C1[X(C40H28)]
 Deg. of freedom   198
 Full point group                 C1      NOp   1
 Largest Abelian subgroup         C1      NOp   1
 Largest concise Abelian subgroup C1      NOp   1
                         Standard orientation:                         
 ---------------------------------------------------------------------
 Center     Atomic      Atomic             Coordinates (Angstroms)
 Number     Number       Type             X           Y           Z
 ---------------------------------------------------------------------
      1          6           0       -0.322109    3.500211    2.583564
      2          6           0        1.065349    3.350759    2.589271
      3          6           0        1.645222    2.178777    2.107131
      4          6           0        0.843880    1.149059    1.606076
      5          6           0       -0.556212    1.301030    1.603191
      6          6           0       -1.129740    2.475539    2.096148
      7          6           0        1.353215   -0.152351    1.087968
      8          6           0        0.556199   -1.300998    1.603255
      9          6           0       -0.843892   -1.149031    1.606093
     10          6           0       -1.353218    0.152363    1.087938
     11          6           0        1.129714   -2.475477    2.096299
     12          6           0        0.322068   -3.500130    2.583731
     13          6           0       -1.065391   -3.350690    2.589368
     14          6           0       -1.645251   -2.178732    2.107155
     15          6           0       -2.309400    0.275646    0.142671
     16          6           0        2.309399   -0.275661    0.142700
     17          6           0       -2.624451    1.577688   -0.520745
     18          6           0       -3.014913   -0.907934   -0.441690
     19          6           0        2.624425   -1.577703   -0.520730
     20          6           0        3.014945    0.907902   -0.441662
     21          6           0       -3.934095    2.070861   -0.563138
     22          6           0       -4.216390    3.277592   -1.202508
     23          6           0       -3.197184    3.996866   -1.827498
     24          6           0       -1.892871    3.501103   -1.810680
     25          6           0       -1.610097    2.301734   -1.161815
     26          6           0       -4.236577   -1.370086    0.058624
     27          6           0       -4.869539   -2.468069   -0.525503
     28          6           0       -4.290550   -3.112689   -1.618527
     29          6           0       -3.078961   -2.648342   -2.132407
     30          6           0       -2.450577   -1.548445   -1.551483
     31          6           0        4.236629    1.370015    0.058636
     32          6           0        4.869617    2.467982   -0.525494
     33          6           0        4.290633    3.112622   -1.618507
     34          6           0        3.079029    2.648309   -2.132380
     35          6           0        2.450621    1.548427   -1.551453
     36          6           0        3.934062   -2.070899   -0.563111
     37          6           0        4.216348   -3.277620   -1.202501
     38          6           0        3.197143   -3.996858   -1.827534
     39          6           0        1.892842   -3.501066   -1.810742
     40          6           0        1.610074   -2.301707   -1.161854
     41          1           0       -0.777321    4.413154    2.971236
     42          1           0        1.701264    4.145803    2.982396
     43          1           0        2.727603    2.058330    2.133307
     44          1           0       -2.215510    2.584560    2.094820
     45          1           0        2.215484   -2.584491    2.095022
     46          1           0        0.777271   -4.413050    2.971468
     47          1           0       -1.701316   -4.145719    2.982509
     48          1           0       -2.727634   -2.058286    2.133282
     49          1           0       -4.739861    1.511558   -0.083357
     50          1           0       -5.239849    3.657050   -1.214231
     51          1           0       -3.419830    4.939140   -2.331285
     52          1           0       -1.089279    4.050009   -2.305504
     53          1           0       -0.588223    1.919506   -1.142606
     54          1           0       -4.687670   -0.877826    0.923066
     55          1           0       -5.817378   -2.825112   -0.118443
     56          1           0       -4.783526   -3.974897   -2.070973
     57          1           0       -2.620682   -3.143440   -2.990575
     58          1           0       -1.508995   -1.175917   -1.961655
     59          1           0        4.687719    0.877734    0.923067
     60          1           0        5.817471    2.824996   -0.118443
     61          1           0        4.783630    3.974817   -2.070957
     62          1           0        2.620756    3.143423   -2.990542
     63          1           0        1.509028    1.175924   -1.961622
     64          1           0        4.739827   -1.511621   -0.083300
     65          1           0        5.239800   -3.657098   -1.214208
     66          1           0        3.419784   -4.939122   -2.331342
     67          1           0        1.089253   -4.049942   -2.305605
     68          1           0        0.588207   -1.919457   -1.142669
 ---------------------------------------------------------------------
 Rotational constants (GHZ):      0.1157258      0.0948071      0.0708839
 Standard basis: CC-pVDZ (5D, 7F)
 There are   740 symmetry adapted cartesian basis functions of A   symmetry.
 There are   700 symmetry adapted basis functions of A   symmetry.
   700 basis functions,  1516 primitive gaussians,   740 cartesian basis functions
   134 alpha electrons      134 beta electrons
       nuclear repulsion energy      4281.8457477027 Hartrees.
 NAtoms=   68 NActive=   68 NUniq=   68 SFac= 1.00D+00 NAtFMM=   60 NAOKFM=T Big=T
 Integral buffers will be    131072 words long.
 Raffenetti 1 integral format.
 Two-electron integral symmetry is turned on.
 Nuclear repulsion after empirical dispersion term =     4281.7769263301 Hartrees.
 ------------------------------------------------------------------------------
 Polarizable Continuum Model (PCM)
 =================================
 Model                : C-PCM.
 Atomic radii         : UFF (Universal Force Field).
 Polarization charges : Total charges.
 Charge compensation  : None.
 Solution method      : On-the-fly selection.
 Cavity type          : Scaled VdW (van der Waals Surface) (Alpha=1.100).
 Cavity algorithm     : GePol (No added spheres)
                        Default sphere list used, NSphG=   68.
                        Lebedev-Laikov grids with approx.  5.0 points / Ang**2.
                        Smoothing algorithm: Karplus/York (Gamma=1.0000).
                        Polarization charges: spherical gaussians, with
                                              point-specific exponents (IZeta= 3).
                        Self-potential: point-specific (ISelfS= 7).
                        Self-field    : sphere-specific E.n sum rule (ISelfD= 2).
 Solvent              : n,n-DiMethylFormamide, Eps=  37.219000 Eps(inf)=   2.046330
 ------------------------------------------------------------------------------
 One-electron integrals computed using PRISM.
 NBasis=   700 RedAO= T EigKep=  1.67D-04  NBF=   700
 NBsUse=   700 1.00D-06 EigRej= -1.00D+00 NBFU=   700
 Initial guess from the checkpoint file:  "D:\Yaroslav\pink-mystery\G1\opt-wb\G1.chk"
 B after Tr=     0.000000    0.000000    0.000000
         Rot=    1.000000    0.000000    0.000000    0.000000 Ang=   0.00 deg.
 Requested convergence on RMS density matrix=1.00D-08 within 128 cycles.
 Requested convergence on MAX density matrix=1.00D-06.
 Requested convergence on             energy=1.00D-06.
 No special actions if energy rises.
 Inv3:  Mode=1 IEnd=    66891852.
 Iteration    1 A*A^-1 deviation from unit magnitude is 5.55D-15 for   1606.
 Iteration    1 A*A^-1 deviation from orthogonality  is 3.51D-15 for   2865   1334.
 Iteration    1 A^-1*A deviation from unit magnitude is 6.22D-15 for   1606.
 Iteration    1 A^-1*A deviation from orthogonality  is 3.42D-15 for   2313   2148.
 Error on total polarization charges =  0.01687
 SCF Done:  E(RwB97XD) =  -1540.72287058     A.U. after    6 cycles
            NFock=  6  Conv=0.56D-08     -V/T= 2.0069
 DoSCS=F DFT=T ScalE2(SS,OS)=  1.000000  1.000000
 ExpMin= 1.22D-01 ExpMax= 6.67D+03 ExpMxC= 2.28D+02 IAcc=3 IRadAn=         5 AccDes= 0.00D+00
 HarFok:  IExCor=  205 AccDes= 0.00D+00 IRadAn=         5 IDoV=-2 UseB2=F ITyADJ=14
 ICtDFT= 12500011 ScaDFX=  1.000000  1.000000  1.000000  1.000000
 Range of M.O.s used for correlation:    41   700
 NBasis=   700 NAE=   134 NBE=   134 NFC=    40 NFV=     0
 NROrb=    660 NOA=    94 NOB=    94 NVA=   566 NVB=   566

 **** Warning!!: The largest alpha MO coefficient is  0.11390807D+02

 Would need an additional        182344700000 words for in-memory AO integral storage.
 NEqPCM:  Using non-equilibrium solvation (IEInf=1, Eps=  37.2190, EpsInf=   2.0463)
 Inv3:  Mode=1 IEnd=    66891852.
 Iteration    1 A*A^-1 deviation from unit magnitude is 5.55D-15 for   1606.
 Iteration    1 A*A^-1 deviation from orthogonality  is 3.51D-15 for   2865   1334.
 Iteration    1 A^-1*A deviation from unit magnitude is 6.22D-15 for   1606.
 Iteration    1 A^-1*A deviation from orthogonality  is 3.42D-15 for   2313   2148.
 Orbital symmetries:
       Occupied  (A) (A) (A) (A) (A) (A) (A) (A) (A) (A) (A) (A)
                 (A) (A) (A) (A) (A) (A) (A) (A) (A) (A) (A) (A)
                 (A) (A) (A) (A) (A) (A) (A) (A) (A) (A) (A) (A)
                 (A) (A) (A) (A) (A) (A) (A) (A) (A) (A) (A) (A)
                 (A) (A) (A) (A) (A) (A) (A) (A) (A) (A) (A) (A)
                 (A) (A) (A) (A) (A) (A) (A) (A) (A) (A) (A) (A)
                 (A) (A) (A) (A) (A) (A) (A) (A) (A) (A) (A) (A)
                 (A) (A) (A) (A) (A) (A) (A) (A) (A) (A) (A) (A)
                 (A) (A) (A) (A) (A) (A) (A) (A) (A) (A) (A) (A)
                 (A) (A) (A) (A) (A) (A) (A) (A) (A) (A) (A) (A)
                 (A) (A) (A) (A) (A) (A) (A) (A) (A) (A) (A) (A)
                 (A) (A)
       Virtual   (A) (A) (A) (A) (A) (A) (A) (A) (A) (A) (A) (A)
                 (A) (A) (A) (A) (A) (A) (A) (A) (A) (A) (A) (A)
                 (A) (A) (A) (A) (A) (A) (A) (A) (A) (A) (A) (A)
                 (A) (A) (A) (A) (A) (A) (A) (A) (A) (A) (A) (A)
                 (A) (A) (A) (A) (A) (A) (A) (A) (A) (A) (A) (A)
                 (A) (A) (A) (A) (A) (A) (A) (A) (A) (A) (A) (A)
                 (A) (A) (A) (A) (A) (A) (A) (A) (A) (A) (A) (A)
                 (A) (A) (A) (A) (A) (A) (A) (A) (A) (A) (A) (A)
                 (A) (A) (A) (A) (A) (A) (A) (A) (A) (A) (A) (A)
                 (A) (A) (A) (A) (A) (A) (A) (A) (A) (A) (A) (A)
                 (A) (A) (A) (A) (A) (A) (A) (A) (A) (A) (A) (A)
                 (A) (A) (A) (A) (A) (A) (A) (A) (A) (A) (A) (A)
                 (A) (A) (A) (A) (A) (A) (A) (A) (A) (A) (A) (A)
                 (A) (A) (A) (A) (A) (A) (A) (A) (A) (A) (A) (A)
                 (A) (A) (A) (A) (A) (A) (A) (A) (A) (A) (A) (A)
                 (A) (A) (A) (A) (A) (A) (A) (A) (A) (A) (A) (A)
                 (A) (A) (A) (A) (A) (A) (A) (A) (A) (A) (A) (A)
                 (A) (A) (A) (A) (A) (A) (A) (A) (A) (A) (A) (A)
                 (A) (A) (A) (A) (A) (A) (A) (A) (A) (A) (A) (A)
                 (A) (A) (A) (A) (A) (A) (A) (A) (A) (A) (A) (A)
                 (A) (A) (A) (A) (A) (A) (A) (A) (A) (A) (A) (A)
                 (A) (A) (A) (A) (A) (A) (A) (A) (A) (A) (A) (A)
                 (A) (A) (A) (A) (A) (A) (A) (A) (A) (A) (A) (A)
                 (A) (A) (A) (A) (A) (A) (A) (A) (A) (A) (A) (A)
                 (A) (A) (A) (A) (A) (A) (A) (A) (A) (A) (A) (A)
                 (A) (A) (A) (A) (A) (A) (A) (A) (A) (A) (A) (A)
                 (A) (A) (A) (A) (A) (A) (A) (A) (A) (A) (A) (A)
                 (A) (A) (A) (A) (A) (A) (A) (A) (A) (A) (A) (A)
                 (A) (A) (A) (A) (A) (A) (A) (A) (A) (A) (A) (A)
                 (A) (A) (A) (A) (A) (A) (A) (A) (A) (A) (A) (A)
                 (A) (A) (A) (A) (A) (A) (A) (A) (A) (A) (A) (A)
                 (A) (A) (A) (A) (A) (A) (A) (A) (A) (A) (A) (A)
                 (A) (A) (A) (A) (A) (A) (A) (A) (A) (A) (A) (A)
                 (A) (A) (A) (A) (A) (A) (A) (A) (A) (A) (A) (A)
                 (A) (A) (A) (A) (A) (A) (A) (A) (A) (A) (A) (A)
                 (A) (A) (A) (A) (A) (A) (A) (A) (A) (A) (A) (A)
                 (A) (A) (A) (A) (A) (A) (A) (A) (A) (A) (A) (A)
                 (A) (A) (A) (A) (A) (A) (A) (A) (A) (A) (A) (A)
                 (A) (A) (A) (A) (A) (A) (A) (A) (A) (A) (A) (A)
                 (A) (A) (A) (A) (A) (A) (A) (A) (A) (A) (A) (A)
                 (A) (A) (A) (A) (A) (A) (A) (A) (A) (A) (A) (A)
                 (A) (A) (A) (A) (A) (A) (A) (A) (A) (A) (A) (A)
                 (A) (A) (A) (A) (A) (A) (A) (A) (A) (A) (A) (A)
                 (A) (A) (A) (A) (A) (A) (A) (A) (A) (A) (A) (A)
                 (A) (A) (A) (A) (A) (A) (A) (A) (A) (A) (A) (A)
                 (A) (A) (A) (A) (A) (A) (A) (A) (A) (A) (A) (A)
                 (A) (A) (A) (A) (A) (A) (A) (A) (A) (A) (A) (A)
                 (A) (A)
   240 initial guesses have been made.
 Convergence on wavefunction:    0.001000000000000
 Iteration     1 Dimension   240 NMult     0 NNew    240
 CISAX will form   240 AO SS matrices at one time.
 New state      3 was old state      5
 New state      4 was old state      3
 New state      5 was old state     11
 New state      6 was old state     21
 New state      7 was old state      4
 New state      8 was old state     61
 New state      9 was old state     75
 New state     10 was old state      6
 New state     11 was old state      7
 New state     12 was old state     10
 New state     13 was old state      8
 New state     14 was old state     15
 New state     15 was old state     16
 New state     16 was old state     12
 New state     17 was old state      9
 New state     18 was old state     28
 New state     19 was old state     17
 New state     20 was old state     13
 New state     21 was old state     14
 New state     22 was old state     20
 New state     23 was old state     29
 New state     24 was old state     18
 New state     25 was old state     27
 New state     26 was old state     22
 New state     27 was old state     26
 New state     28 was old state     33
 New state     29 was old state     37
 New state     30 was old state     19
 New state     31 was old state     34
 New state     32 was old state     43
 New state     33 was old state     23
 New state     34 was old state     31
 New state     35 was old state     42
 New state     36 was old state     24
 New state     37 was old state     49
 New state     38 was old state     50
 New state     39 was old state     74
 New state     40 was old state     41
 New state     41 was old state     30
 New state     42 was old state     32
 New state     43 was old state     95
 New state     44 was old state     35
 New state     45 was old state     38
 New state     46 was old state     86
 New state     47 was old state     46
 New state     48 was old state     51
 New state     49 was old state    124
 New state     50 was old state     44
 New state     51 was old state     39
 New state     52 was old state     36
 New state     53 was old state     54
 New state     54 was old state     60
 New state     56 was old state     48
 New state     57 was old state     53
 New state     58 was old state     47
 New state     59 was old state     45
 New state     60 was old state     81
 Iteration     2 Dimension   360 NMult   240 NNew    120
 New state      3 was old state      4
 New state      4 was old state      3
 New state      5 was old state      7
 New state      6 was old state      5
 New state      7 was old state      6
 New state     16 was old state     17
 New state     17 was old state     20
 New state     18 was old state     19
 New state     19 was old state     18
 New state     20 was old state     16
 New state     21 was old state     22
 New state     22 was old state     21
 New state     23 was old state     27
 New state     25 was old state     26
 New state     26 was old state     23
 New state     27 was old state     25
 New state     29 was old state     32
 New state     30 was old state     31
 New state     31 was old state     29
 New state     32 was old state     45
 New state     33 was old state     30
 New state     34 was old state     33
 New state     35 was old state     37
 New state     36 was old state     34
 New state     37 was old state     35
 New state     39 was old state     36
 New state     41 was old state     59
 New state     42 was old state     48
 New state     43 was old state     49
 New state     44 was old state     39
 New state     45 was old state     51
 New state     46 was old state     43
 New state     47 was old state     54
 New state     48 was old state     41
 New state     49 was old state     47
 New state     50 was old state     42
 New state     51 was old state     44
 New state     52 was old state     46
 New state     53 was old state     56
 New state     54 was old state     55
 New state     55 was old state     52
 New state     56 was old state     50
 New state     57 was old state     58
 New state     58 was old state     60
 New state     59 was old state     64
 New state     60 was old state     57
 Iteration     3 Dimension   480 NMult   360 NNew    120
 New state     37 was old state     38
 New state     38 was old state     37
 New state     39 was old state     40
 New state     40 was old state     39
 New state     44 was old state     45
 New state     45 was old state     44
 New state     56 was old state     57
 New state     57 was old state     56
 No map to state     60
 Iteration     4 Dimension   600 NMult   480 NNew    120
 No map to state     60
 Iteration     5 Dimension   696 NMult   600 NNew     96
 New state     59 was old state     60
 New state     60 was old state     59
 Iteration     6 Dimension   738 NMult   696 NNew     42
 Iteration     7 Dimension   750 NMult   738 NNew     12
 Iteration     8 Dimension   756 NMult   750 NNew      6
 Iteration     9 Dimension   758 NMult   756 NNew      2
 ***********************************************************************
 Excited states from <AA,BB:AA,BB> singles matrix:
 ***********************************************************************
 
 Ground to excited state transition densities written to RWF  633
 Ground to excited state transition electric dipole moments (Au):
       state          X           Y           Z        Dip. S.      Osc.
         1         2.1949     -0.7179      0.0002      5.3330      0.5752
         2        -0.0002      0.0001      1.5362      2.3601      0.2765
         3         0.0001      0.0000     -1.0335      1.0681      0.1278
         4         0.3042     -0.0227     -0.0001      0.0931      0.0114
         5         0.0000      0.0000     -1.0136      1.0275      0.1272
         6         0.0000      0.0021      0.0396      0.0016      0.0002
         7         0.0058     -0.3744      0.0002      0.1402      0.0181
         8         0.3927     -0.2318      0.0001      0.2079      0.0272
         9         0.0000      0.0000     -0.1860      0.0346      0.0046
        10         0.4020     -0.3718      0.0001      0.2999      0.0405
        11         0.0000      0.0001      0.3047      0.0928      0.0127
        12        -0.3295     -1.7930      0.0000      3.3233      0.4615
        13         0.0000      0.0001      0.3467      0.1202      0.0168
        14         0.1608     -0.4131      0.0001      0.1965      0.0275
        15         0.0002     -0.0008     -0.0272      0.0007      0.0001
        16        -0.2808      1.8093     -0.0001      3.3523      0.4825
        17         0.1711      0.4374     -0.0003      0.2206      0.0323
        18        -0.0001     -0.0002     -0.1912      0.0366      0.0054
        19         0.0005      0.0008      0.1376      0.0189      0.0028
        20        -0.1178     -0.2071      0.0003      0.0568      0.0084
        21        -0.2272     -0.1875     -0.0001      0.0867      0.0129
        22         0.0000      0.0001     -0.2801      0.0784      0.0117
        23        -0.0002     -0.0001     -0.5719      0.3270      0.0490
        24         0.0002      0.0002      0.0171      0.0003      0.0000
        25        -1.1257     -1.2605      0.0000      2.8559      0.4327
        26        -0.6966     -1.0435     -0.0001      1.5742      0.2411
        27        -0.0010      0.0007     -0.0745      0.0056      0.0009
        28         0.3609     -0.2744     -0.0003      0.2055      0.0316
        29        -0.5224     -0.6953      0.0000      0.7563      0.1168
        30         0.0000      0.0002     -0.2468      0.0609      0.0094
        31         0.0000      0.0000     -0.0449      0.0020      0.0003
        32        -1.1981      0.6293     -0.0001      1.8316      0.2889
        33        -0.4418      0.4566     -0.0002      0.4037      0.0643
        34         0.0002      0.0001     -0.5505      0.3031      0.0484
        35         0.0001     -0.0004      0.0141      0.0002      0.0000
        36        -0.1885      1.3505      0.0001      1.8594      0.3002
        37         0.0000     -0.0002     -0.1350      0.0182      0.0030
        38         0.3918     -0.3225      0.0000      0.2575      0.0421
        39         0.5893      2.3453      0.0000      5.8478      0.9612
        40        -0.9206     -1.0067      0.0001      1.8609      0.3069
        41        -0.0004     -0.0001     -0.6122      0.3748      0.0619
        42        -0.1986     -1.2760     -0.0001      1.6676      0.2760
        43         1.8060     -0.2190      0.0000      3.3097      0.5485
        44        -0.0002     -0.0002      1.0230      1.0466      0.1739
        45         0.0004      0.0000      0.0682      0.0046      0.0008
        46         0.2677      0.5193      0.0000      0.3414      0.0570
        47        -0.9412     -0.0390      0.0000      0.8875      0.1495
        48         0.0004      0.0001      0.6253      0.3910      0.0661
        49        -0.0002      0.0002      0.1021      0.0104      0.0018
        50         0.6979     -0.8091     -0.0001      1.1417      0.1940
        51         0.0003     -0.0001      0.8582      0.7364      0.1258
        52         0.0008     -0.0001      0.2105      0.0443      0.0076
        53         1.0151     -0.0942     -0.0003      1.0394      0.1782
        54        -0.0007      0.0001      0.3824      0.1463      0.0251
        55        -1.3651     -0.4222     -0.0001      2.0417      0.3526
        56        -1.6116      0.1674      0.0001      2.6254      0.4565
        57         0.0000      0.0000      0.7640      0.5837      0.1017
        58         0.0003     -0.0001      0.4327      0.1872      0.0326
        59        -0.0005     -0.0001      0.2549      0.0650      0.0114
        60        -0.0377     -0.1361      0.0000      0.0199      0.0035
 Ground to excited state transition velocity dipole moments (Au):
       state          X           Y           Z        Dip. S.      Osc.
         1        -0.3535      0.1143      0.0000      0.1380      0.5688
         2         0.0000      0.0000     -0.2687      0.0722      0.2738
         3         0.0000      0.0000      0.1935      0.0374      0.1391
         4        -0.0553      0.0027      0.0000      0.0031      0.0111
         5         0.0000      0.0000      0.1909      0.0364      0.1308
         6         0.0000     -0.0004     -0.0061      0.0000      0.0001
         7         0.0005      0.0706      0.0000      0.0050      0.0172
         8        -0.0777      0.0467      0.0000      0.0082      0.0279
         9         0.0000      0.0000      0.0361      0.0013      0.0044
        10        -0.0846      0.0750      0.0000      0.0128      0.0421
        11         0.0000      0.0000     -0.0674      0.0045      0.0148
        12         0.0704      0.3699      0.0000      0.1418      0.4538
        13         0.0000      0.0000     -0.0775      0.0060      0.0191
        14        -0.0432      0.0910      0.0000      0.0101      0.0322
        15         0.0000      0.0002      0.0086      0.0001      0.0002
        16         0.0641     -0.3832      0.0000      0.1510      0.4661
        17        -0.0373     -0.0958      0.0001      0.0106      0.0321
        18         0.0000      0.0000      0.0478      0.0023      0.0069
        19        -0.0001     -0.0002     -0.0222      0.0005      0.0015
        20         0.0246      0.0464     -0.0001      0.0028      0.0083
        21         0.0469      0.0384      0.0000      0.0037      0.0110
        22         0.0000      0.0000      0.0649      0.0042      0.0126
        23         0.0000      0.0000      0.1203      0.0145      0.0430
        24         0.0000      0.0000     -0.0102      0.0001      0.0003
        25         0.2586      0.2866      0.0000      0.1490      0.4371
        26         0.1606      0.2303      0.0000      0.0789      0.2289
        27         0.0002     -0.0002      0.0187      0.0003      0.0010
        28        -0.0877      0.0706      0.0001      0.0127      0.0366
        29         0.1154      0.1616      0.0000      0.0394      0.1135
        30         0.0000     -0.0001      0.0580      0.0034      0.0097
        31         0.0000      0.0000      0.0089      0.0001      0.0002
        32         0.2788     -0.1458      0.0000      0.0990      0.2790
        33         0.1047     -0.1112      0.0000      0.0233      0.0650
        34         0.0000      0.0000      0.1218      0.0148      0.0413
        35         0.0000      0.0001     -0.0054      0.0000      0.0001
        36         0.0441     -0.3255      0.0000      0.1079      0.2970
        37         0.0000      0.0000      0.0283      0.0008      0.0022
        38        -0.0955      0.0794      0.0000      0.0154      0.0420
        39        -0.1443     -0.5737      0.0000      0.3499      0.9462
        40         0.2256      0.2436      0.0000      0.1102      0.2970
        41         0.0001      0.0000      0.1601      0.0256      0.0690
        42         0.0472      0.3102      0.0000      0.0985      0.2644
        43        -0.4438      0.0520      0.0000      0.1997      0.5355
        44         0.0000      0.0001     -0.2566      0.0658      0.1761
        45        -0.0001      0.0000     -0.0125      0.0002      0.0004
        46        -0.0671     -0.1226      0.0000      0.0195      0.0520
        47         0.2295      0.0129      0.0000      0.0528      0.1394
        48        -0.0001      0.0000     -0.1569      0.0246      0.0647
        49         0.0001      0.0000     -0.0205      0.0004      0.0011
        50        -0.1753      0.2013      0.0000      0.0713      0.1864
        51        -0.0001      0.0000     -0.2144      0.0460      0.1196
        52        -0.0002      0.0000     -0.0590      0.0035      0.0090
        53        -0.2598      0.0229      0.0001      0.0680      0.1762
        54         0.0002      0.0000     -0.0971      0.0094      0.0244
        55         0.3498      0.1057      0.0000      0.1335      0.3436
        56         0.4114     -0.0456      0.0000      0.1714      0.4380
        57         0.0000      0.0000     -0.1964      0.0386      0.0984
        58        -0.0001      0.0000     -0.1106      0.0122      0.0312
        59         0.0001      0.0000     -0.0677      0.0046      0.0117
        60         0.0126      0.0329      0.0000      0.0012      0.0032
 Ground to excited state transition magnetic dipole moments (Au):
       state          X           Y           Z
         1        -0.0435     -1.9918     -0.0001
         2         0.0001      0.0002     -0.0329
         3         0.0000     -0.0001      0.1857
         4        -0.0734     -0.2120      0.0001
         5         0.0000      0.0000      1.8346
         6         0.0005      0.0014      0.3244
         7        -0.0932     -0.2591      0.0019
         8        -0.6892      0.2247      0.0000
         9         0.0000      0.0000     -0.2692
        10        -0.5753     -0.1508      0.0001
        11         0.0000      0.0000      1.2958
        12        -0.6714     -0.1311      0.0000
        13         0.0000      0.0002      0.6103
        14        -0.1344     -0.7682      0.0002
        15        -0.0002      0.0001      0.6989
        16         0.4654     -0.4794      0.0001
        17         0.1929      0.0242      0.0002
        18        -0.0002     -0.0001      0.6314
        19         0.0004     -0.0014      2.4940
        20        -0.1265      0.5182      0.0070
        21        -0.3123      0.0793      0.0002
        22         0.0001     -0.0001     -0.3359
        23         0.0000     -0.0001     -1.5766
        24         0.0001      0.0001      0.0900
        25        -0.7868     -0.9906      0.0003
        26        -0.2888      0.5573      0.0000
        27         0.0009     -0.0027     -1.8306
        28        -0.3271      1.0961     -0.0053
        29         0.0767      1.0467      0.0002
        30         0.0001     -0.0008     -0.5872
        31         0.0000     -0.0001     -0.3324
        32         0.0903      1.7652      0.0002
        33         0.5421     -0.1286      0.0004
        34        -0.0002      0.0002      1.1341
        35        -0.0001     -0.0003      0.5251
        36         0.3216      0.6082     -0.0001
        37        -0.0001      0.0000     -0.6126
        38        -0.1219      0.2717     -0.0001
        39         0.7248     -1.8886      0.0001
        40        -0.0058      1.0004     -0.0003
        41         0.0001      0.0002      0.5943
        42         0.7576     -3.7352     -0.0004
        43        -0.7926     -0.2411      0.0002
        44         0.0001     -0.0003      4.3101
        45        -0.0002      0.0005      0.1951
        46        -0.3794      0.6111      0.0002
        47         0.0734     -0.3521      0.0000
        48        -0.0001     -0.0002      0.2282
        49         0.0002     -0.0005      0.0204
        50        -0.7658      1.2893     -0.0001
        51        -0.0002      0.0005      0.1224
        52        -0.0002      0.0012      1.5647
        53        -0.2631      1.4229     -0.0017
        54         0.0002     -0.0010     -0.2046
        55        -0.3866     -2.2729      0.0000
        56         0.6925      0.7899      0.0000
        57         0.0001      0.0004      0.3891
        58        -0.0002     -0.0005     -0.9645
        59         0.0003      0.0011     -0.9656
        60         0.1641      1.7771      0.0003
 Ground to excited state transition velocity quadrupole moments (Au):
       state          XX          YY          ZZ          XY          XZ          YZ
         1         0.0001      0.0000     -0.0001     -0.0001      0.6494     -0.5876
         2         1.2841      0.0563     -0.5551     -1.1776      0.0000      0.0000
         3        -0.8490      0.0843      0.4448      0.6555      0.0000      0.0000
         4        -0.0001      0.0000      0.0000      0.0000      0.0753      0.2205
         5        -1.1611      0.3442      0.5006     -0.0837      0.0000     -0.0001
         6         0.2414     -0.1673     -0.1066      0.2634     -0.0003     -0.0003
         7         0.0013     -0.0010     -0.0006      0.0015      0.0437      0.0539
         8         0.0001      0.0000     -0.0001     -0.0001     -0.1173      1.1229
         9        -0.5710      0.3680      0.2843     -0.3537      0.0000      0.0001
        10         0.0002      0.0000     -0.0001     -0.0001     -0.2105      1.6388
        11         0.9327     -1.0182     -0.4089      0.9250      0.0000      0.0000
        12         0.0000     -0.0001      0.0000      0.0001      0.4559      0.2889
        13         0.6317     -0.6863     -0.3717      0.9449      0.0001      0.0001
        14         0.0003     -0.0002     -0.0001      0.0001     -0.5929     -0.3919
        15         0.3624      0.4167      0.1217     -0.7715      0.0002      0.0005
        16        -0.0002      0.0002      0.0002      0.0000     -0.4423     -1.3131
        17         0.0002      0.0005      0.0000     -0.0021     -0.1900     -1.2711
        18         0.4870      0.3989     -0.1221     -2.1456      0.0002      0.0012
        19         1.3213      0.0695     -0.1784     -1.2313      0.0002      0.0006
        20         0.0038      0.0002     -0.0005     -0.0035     -0.0466     -0.4498
        21         0.0002      0.0000      0.0000     -0.0002     -0.0293      0.6355
        22        -0.0923      0.0115      0.0369      0.2548      0.0000     -0.0001
        23        -1.6981      0.6180      0.4904     -0.2787      0.0000      0.0002
        24        -0.9814      0.3410      0.0125     -0.9081      0.0001     -0.0002
        25         0.0000      0.0001     -0.0001     -0.0001     -0.2416      0.6338
        26        -0.0001      0.0001      0.0000     -0.0004     -0.0439      0.2197
        27        -2.0950      0.4639      0.1780     -0.8800      0.0003     -0.0009
        28        -0.0054      0.0013      0.0004     -0.0031     -0.1424      0.3015
        29         0.0004     -0.0002      0.0000      0.0000     -0.6540     -1.6080
        30         0.6116     -0.0374     -0.2133     -2.1558      0.0002     -0.0001
        31        -0.5716      0.9480      0.2718     -0.6134      0.0000     -0.0002
        32         0.0001     -0.0001      0.0000      0.0000     -1.2017      0.9192
        33        -0.0004     -0.0006      0.0000      0.0007     -0.3249     -1.1445
        34        -1.2974     -1.4430     -0.0796      1.4323      0.0002      0.0004
        35         0.9653     -0.4010      0.0114      2.9954      0.0000      0.0000
        36         0.0004      0.0002      0.0001      0.0005      0.0799      0.8928
        37        -0.7790      0.9055      0.1851     -2.1996     -0.0001     -0.0003
        38         0.0002      0.0002      0.0000      0.0003      0.2673     -0.7518
        39        -0.0002      0.0000      0.0001     -0.0001      0.6256      2.0085
        40        -0.0006      0.0003      0.0002     -0.0010      0.1127      0.1638
        41         3.6524     -0.7982     -0.9684      4.0544      0.0001     -0.0001
        42         0.0000      0.0001      0.0000      0.0000      1.0710      0.8552
        43         0.0001     -0.0001     -0.0002      0.0002     -0.3827      0.1771
        44        -0.7620     -0.1262      0.6518      0.6617      0.0001     -0.0001
        45         0.4223      0.8819      0.3326      1.4525     -0.0002     -0.0001
        46         0.0001      0.0000     -0.0001      0.0001      0.7043      2.2291
        47         0.0003      0.0004      0.0001      0.0002     -0.0939     -0.1345
        48         1.9629      1.5522      0.2832      0.1256      0.0000      0.0000
        49        -0.1624      0.8679      0.2382      0.5764      0.0002      0.0004
        50        -0.0003      0.0002      0.0001      0.0003     -0.9987     -2.2220
        51         2.3947     -0.3198     -0.7845     -0.7900     -0.0001     -0.0001
        52        -0.7415      0.0406      0.3034      0.4980     -0.0002      0.0000
        53        -0.0027      0.0003      0.0005      0.0004     -0.1749     -0.0766
        54        -4.4977      0.4813      1.0251      1.2326      0.0001      0.0002
        55         0.0004     -0.0001     -0.0002     -0.0002     -0.6754      0.0559
        56         0.0006      0.0002      0.0001      0.0005     -0.4730      0.2834
        57        -0.9047     -0.4134      0.0592      0.5419     -0.0001      0.0002
        58        -0.1352      0.8372      0.2123      0.9051      0.0000     -0.0002
        59        -1.3016      0.1550      0.0105     -1.7729     -0.0004      0.0006
        60         0.0008      0.0003      0.0001      0.0010     -0.2511      1.2123
 <0|del|b> * <b|rxdel|0> + <0|del|b> * <b|delr+rdel|0>
 Rotatory Strengths (R) in cgs (10**-40 erg-esu-cm/Gauss)
       state          XX          YY          ZZ    R(velocity)    E-M Angle
         1      -659.8228    487.5821   -755.7673   -309.3360      106.67
         2       654.3177   -618.7192      0.0000     11.8661       90.00
         3       320.6595   -179.0696      0.0000     47.1966       90.00
         4        -1.4922    -15.5999     30.4626      4.4568       73.70
         5       636.3400    697.2060      0.0000    444.5153       90.00
         6        -6.5775     -0.6820     -0.0009     -2.4201      176.57
         7       -39.0515     -0.0339    -27.9079    -22.3311      160.60
         8        28.7508    -60.5977    262.2388     76.7973       12.97
         9       -40.0548      5.4329      0.0000    -11.5406       90.00
        10         7.8224   -157.2101    279.9570     43.5231       56.24
        11      -257.8133    -43.0434      0.0000   -100.2856       90.00
        12      -368.5685    -45.7076     89.1861   -108.3633      111.82
        13      -203.6472     43.8179      0.0000    -53.2764       90.00
        14       -26.8744     38.2652   -227.2919    -71.9670      144.69
        15        -1.0265     20.8125      0.0001      6.5954        1.12
        16        23.3020    -88.9389    765.0480    233.1370       34.66
        17       -33.0328     64.6847    -62.2662    -10.2048      118.41
        18      -116.3976    213.4639      0.0000     32.3554       90.00
        19       -44.7714   -132.0856      0.0004    -58.9522      179.45
        20        41.7958    -22.6351     47.6014     22.2540       41.68
        21         6.6191     24.0415    -67.4544    -12.2646      126.42
        22        -8.3423    -60.7456      0.0000    -23.0293       90.00
        23      -351.2760   -245.7530      0.0000   -199.0097       90.00
        24        13.0414    -15.9097      0.0000     -0.9561       90.00
        25      -333.9872    -61.5386  -1120.9446   -505.4901      176.40
        26       213.1748    -17.0683     56.3180     84.1415       62.28
        27       -77.7497    -27.2694      0.0013    -35.0059      179.00
        28       133.9620      3.4401    187.6402    108.3474       34.55
        29       419.6384   -269.7627    393.6829    181.1862       31.33
        30      -242.4783    138.6614      0.0001    -34.6056       90.00
        31       -12.7306      3.7821      0.0000     -2.9829       90.00
        32      -646.6383    420.7012   -468.2188   -231.3853      114.68
        33       -32.2896    -93.2663    335.7692     70.0711       33.38
        34       461.4095    -53.6106      0.0000    135.9330       90.00
        35       -27.9356     19.6023      0.0000     -2.7778       90.00
        36      -251.0471     78.2604   -363.8038   -178.8635      144.41
        37      -114.8113     64.7907      0.0000    -16.6735       90.00
        38         0.5087    120.3886    -25.0711     31.9421       26.11
        39      2068.5126   -565.4704   1304.6501    935.8974       35.11
        40       309.0610     50.9627    332.8638    230.9625       43.14
        41      1062.6231   -790.9203      0.0000     90.5676       90.00
        42     -2123.4892    108.4767  -1183.6378  -1066.2168      159.88
        43        10.4680    388.5433    566.0361    321.6824       23.60
        44     -1809.3786  -1327.7648      0.0000  -1045.7145      179.99
        45       -29.0601     22.1781      0.0000     -2.2940       90.00
        46        16.1149   -175.2708     19.6205    -46.5118      119.46
        47        -4.6650    -19.6238     58.6895     11.4669       81.45
        48       -77.3351    -22.4223      0.0000    -33.2525       90.00
        49       -17.0016     15.8376      0.0000     -0.3880       90.00
        50       638.8779    726.7812   -273.0791    364.1933       10.35
        51       197.4663   -269.8969      0.0000    -24.1435      179.75
        52      -167.5497    -86.6437      0.0001    -84.7311      179.78
        53        50.2049    121.3113    105.8014     92.4392       74.50
        54      -136.9450    191.4507      0.0000     18.1686        0.29
        55      -230.4264   -157.9014   -636.5234   -341.6171      116.46
        56       -78.1236    544.3787    208.6134    224.9561       55.09
        57      -247.4374     40.6107      0.0000    -68.9422       90.00
        58         8.8900    279.6921      0.0000     96.1940        0.06
        59       250.0826    -73.7184      0.0000     58.7880        0.10
        60        89.9149     23.4214     49.8126     54.3830       15.72
 1/2[<0|r|b>*<b|rxdel|0> + (<0|rxdel|b>*<b|r|0>)*]
 Rotatory Strengths (R) in cgs (10**-40 erg-esu-cm/Gauss)
       state          XX          YY          ZZ     R(length)
         1        67.4705  -1011.1779      0.0000   -314.5691
         2         0.0000      0.0000     35.7732     11.9244
         3         0.0000      0.0000    135.7500     45.2500
         4        15.7980     -3.4028      0.0000      4.1317
         5         0.0000      0.0000   1315.0698    438.3566
         6         0.0000     -0.0021     -9.0900     -3.0307
         7         0.3821    -68.5945     -0.0003    -22.7375
         8       191.3914     36.8412      0.0000     76.0775
         9         0.0000      0.0000    -35.4190    -11.8063
        10       163.5629    -39.6599      0.0000     41.3010
        11         0.0000      0.0000   -279.1967    -93.0656
        12      -156.4236   -166.2337      0.0000   -107.5524
        13         0.0000      0.0000   -149.6359    -49.8786
        14        15.2904   -224.4138      0.0000    -69.7078
        15         0.0000      0.0001     13.4468      4.4823
        16        92.4133    613.4278      0.0000    235.2804
        17       -23.3384     -7.4875      0.0001    -10.2753
        18         0.0000      0.0000     85.3636     28.4545
        19        -0.0001      0.0008   -242.7040    -80.9011
        20       -10.5342     75.8981     -0.0017     21.7874
        21       -50.1682     10.5156      0.0000    -13.2175
        22         0.0000      0.0000    -66.5161    -22.1720
        23         0.0000      0.0000   -637.5925   -212.5308
        24         0.0000      0.0000     -1.0907     -0.3636
        25      -626.3247   -883.0270      0.0000   -503.1173
        26      -142.2493    411.2846      0.0000     89.6784
        27         0.0007      0.0014    -96.4311    -32.1430
        28        83.4820    212.7111     -0.0011     98.7306
        29        28.3329    514.6149      0.0000    180.9826
        30         0.0000      0.0001   -102.4961    -34.1653
        31         0.0000      0.0000    -10.5574     -3.5191
        32        76.5467   -785.5739      0.0000   -236.3424
        33       169.3717     41.5382      0.0001     70.3033
        34         0.0000      0.0000    441.5314    147.1771
        35         0.0000     -0.0001     -5.2311     -1.7437
        36        42.8777   -580.8199      0.0000   -179.3141
        37         0.0000      0.0000    -58.4990    -19.4997
        38        33.7708     61.9707      0.0000     31.9138
        39      -302.0454   3132.3417      0.0000    943.4321
        40        -3.7605    712.1989      0.0000    236.1462
        41         0.0000      0.0000    257.3088     85.7696
        42       106.4015  -3370.3836      0.0000  -1087.9940
        43      1012.2775    -37.3387      0.0000    324.9796
        44         0.0000      0.0000  -3118.1524  -1039.3842
        45         0.0001      0.0000     -9.4065     -3.1355
        46        71.8202   -224.4371      0.0000    -50.8723
        47        48.8372     -9.7131      0.0000     13.0413
        48         0.0000      0.0000   -100.8823    -33.6274
        49         0.0000      0.0001     -1.4757     -0.4919
        50       377.9206    737.7524      0.0000    371.8910
        51         0.0000      0.0000    -74.2964    -24.7654
        52         0.0001      0.0001   -232.9230    -77.6409
        53       188.8744     94.7934     -0.0004     94.5558
        54         0.0001      0.0000     55.3260     18.4420
        55      -373.1971   -678.5686      0.0000   -350.5886
        56       789.2537    -93.4780      0.0000    231.9253
        57         0.0000      0.0000   -210.2293    -70.0764
        58         0.0000      0.0000    295.1488     98.3829
        59         0.0001      0.0001    174.0627     58.0210
        60         4.3784    171.0231      0.0000     58.4672
  1/2[<0|del|b>*<b|r|0> + (<0|r|b>*<b|del|0>)*] (Au)
       state          X           Y           Z        Dip. S.   Osc.(frdel)
         1        -0.7759     -0.0821      0.0000      0.8579      0.5720
         2         0.0000      0.0000     -0.4128      0.4128      0.2752
         3         0.0000      0.0000     -0.2000      0.2000      0.1333
         4        -0.0168     -0.0001      0.0000      0.0169      0.0113
         5         0.0000      0.0000     -0.1935      0.1935      0.1290
         6         0.0000      0.0000     -0.0002      0.0002      0.0002
         7         0.0000     -0.0264      0.0000      0.0264      0.0176
         8        -0.0305     -0.0108      0.0000      0.0413      0.0276
         9         0.0000      0.0000     -0.0067      0.0067      0.0045
        10        -0.0340     -0.0279      0.0000      0.0619      0.0413
        11         0.0000      0.0000     -0.0205      0.0205      0.0137
        12        -0.0232     -0.6633      0.0000      0.6865      0.4576
        13         0.0000      0.0000     -0.0269      0.0269      0.0179
        14        -0.0069     -0.0376      0.0000      0.0445      0.0297
        15         0.0000      0.0000     -0.0002      0.0002      0.0002
        16        -0.0180     -0.6933      0.0000      0.7113      0.4742
        17        -0.0064     -0.0419      0.0000      0.0483      0.0322
        18         0.0000      0.0000     -0.0091      0.0091      0.0061
        19         0.0000      0.0000     -0.0031      0.0031      0.0020
        20        -0.0029     -0.0096      0.0000      0.0125      0.0083
        21        -0.0106     -0.0072      0.0000      0.0178      0.0119
        22         0.0000      0.0000     -0.0182      0.0182      0.0121
        23         0.0000      0.0000     -0.0688      0.0688      0.0459
        24         0.0000      0.0000     -0.0002      0.0002      0.0001
        25        -0.2911     -0.3613      0.0000      0.6523      0.4349
        26        -0.1119     -0.2404      0.0000      0.3523      0.2348
        27         0.0000      0.0000     -0.0014      0.0014      0.0009
        28        -0.0316     -0.0194      0.0000      0.0510      0.0340
        29        -0.0603     -0.1124      0.0000      0.1726      0.1151
        30         0.0000      0.0000     -0.0143      0.0143      0.0096
        31         0.0000      0.0000     -0.0004      0.0004      0.0003
        32        -0.3341     -0.0918      0.0000      0.4259      0.2839
        33        -0.0462     -0.0508      0.0000      0.0970      0.0647
        34         0.0000      0.0000     -0.0671      0.0671      0.0447
        35         0.0000      0.0000     -0.0001      0.0001      0.0001
        36        -0.0083     -0.4396      0.0000      0.4479      0.2986
        37         0.0000      0.0000     -0.0038      0.0038      0.0025
        38        -0.0374     -0.0256      0.0000      0.0630      0.0420
        39        -0.0850     -1.3455      0.0000      1.4305      0.9537
        40        -0.2077     -0.2452      0.0000      0.4529      0.3019
        41         0.0000      0.0000     -0.0980      0.0980      0.0653
        42        -0.0094     -0.3958      0.0000      0.4052      0.2701
        43        -0.8016     -0.0114      0.0000      0.8130      0.5420
        44         0.0000      0.0000     -0.2625      0.2625      0.1750
        45         0.0000      0.0000     -0.0009      0.0009      0.0006
        46        -0.0180     -0.0637      0.0000      0.0816      0.0544
        47        -0.2160     -0.0005      0.0000      0.2165      0.1443
        48         0.0000      0.0000     -0.0981      0.0981      0.0654
        49         0.0000      0.0000     -0.0021      0.0021      0.0014
        50        -0.1224     -0.1629      0.0000      0.2852      0.1902
        51         0.0000      0.0000     -0.1840      0.1840      0.1226
        52         0.0000      0.0000     -0.0124      0.0124      0.0083
        53        -0.2637     -0.0022      0.0000      0.2658      0.1772
        54         0.0000      0.0000     -0.0371      0.0371      0.0248
        55        -0.4775     -0.0446      0.0000      0.5222      0.3481
        56        -0.6631     -0.0076      0.0000      0.6707      0.4471
        57         0.0000      0.0000     -0.1500      0.1500      0.1000
        58         0.0000      0.0000     -0.0479      0.0479      0.0319
        59         0.0000      0.0000     -0.0173      0.0173      0.0115
        60        -0.0005     -0.0045      0.0000      0.0050      0.0033

 Excitation energies and oscillator strengths:
 
 Excited State   1:      Singlet-A      4.4023 eV  281.63 nm  f=0.5752  <S**2>=0.000
     133 ->136        -0.17756
     134 ->135         0.66418
 This state for optimization and/or second-order correction.
 Total Energy, E(TD-HF/TD-KS) =  -1540.56108837    
 Copying the excited state density for this state as the 1-particle RhoCI density.
 
 Excited State   2:      Singlet-A      4.7827 eV  259.24 nm  f=0.2765  <S**2>=0.000
     130 ->135         0.10346
     133 ->135         0.61995
     134 ->136        -0.12930
     134 ->139         0.10333
 
 Excited State   3:      Singlet-A      4.8850 eV  253.81 nm  f=0.1278  <S**2>=0.000
     132 ->135        -0.21874
     132 ->144         0.11301
     133 ->145         0.10937
     134 ->136         0.57646
     134 ->137        -0.10523
 
 Excited State   4:      Singlet-A      5.0167 eV  247.14 nm  f=0.0114  <S**2>=0.000
     124 ->135        -0.14733
     126 ->136        -0.10020
     129 ->135        -0.17718
     130 ->136        -0.12794
     131 ->135         0.38890
     132 ->136        -0.21444
     132 ->137         0.13667
     132 ->146         0.10201
     133 ->136        -0.10805
     133 ->139        -0.13401
     133 ->141        -0.10663
     134 ->144        -0.16277
     134 ->145        -0.14309
 
 Excited State   5:      Singlet-A      5.0534 eV  245.35 nm  f=0.1272  <S**2>=0.000
     130 ->135         0.19924
     131 ->136         0.11767
     132 ->135         0.57526
     134 ->136         0.21488
 
 Excited State   6:      Singlet-A      5.2648 eV  235.50 nm  f=0.0002  <S**2>=0.000
     123 ->142        -0.12615
     124 ->139        -0.12642
     126 ->135        -0.20708
     129 ->136        -0.19236
     129 ->137        -0.14194
     130 ->135         0.13106
     130 ->138         0.12939
     132 ->135        -0.10703
     133 ->138        -0.14553
     133 ->142        -0.21387
     134 ->137         0.15269
     134 ->139         0.23299
     134 ->143        -0.14685
 
 Excited State   7:      Singlet-A      5.2661 eV  235.44 nm  f=0.0181  <S**2>=0.000
     123 ->139        -0.12987
     124 ->135         0.15247
     124 ->142        -0.10226
     126 ->136        -0.14566
     126 ->137        -0.12275
     129 ->135        -0.21694
     129 ->138        -0.12993
     129 ->145         0.12108
     130 ->136         0.18577
     130 ->137         0.10828
     133 ->139        -0.21584
     133 ->143         0.14620
     134 ->138         0.17669
     134 ->142         0.23789
 
 Excited State   8:      Singlet-A      5.3490 eV  231.79 nm  f=0.0272  <S**2>=0.000
     125 ->140        -0.10162
     127 ->137         0.17620
     128 ->138        -0.15565
     130 ->139         0.11858
     130 ->141        -0.10446
     131 ->135         0.33349
     131 ->140        -0.16693
     132 ->136         0.27100
     133 ->136         0.23016
 
 Excited State   9:      Singlet-A      5.4020 eV  229.51 nm  f=0.0046  <S**2>=0.000
     125 ->141         0.14039
     126 ->135        -0.11513
     126 ->140         0.10672
     127 ->138         0.22201
     127 ->142        -0.10608
     128 ->137        -0.21528
     128 ->143        -0.12837
     130 ->135        -0.20032
     130 ->140         0.18103
     131 ->136         0.16102
     131 ->139        -0.13560
     131 ->141         0.16651
     132 ->140        -0.16081
     133 ->140        -0.11105
     134 ->137        -0.10725
 
 Excited State  10:      Singlet-A      5.5080 eV  225.10 nm  f=0.0405  <S**2>=0.000
     125 ->135        -0.11606
     125 ->140         0.11923
     127 ->137        -0.17061
     127 ->143        -0.10312
     128 ->138         0.17246
     130 ->141         0.12439
     131 ->135         0.26352
     131 ->140         0.18032
     132 ->141        -0.11260
     133 ->136         0.32702
     134 ->145         0.10331
 
 Excited State  11:      Singlet-A      5.5853 eV  221.98 nm  f=0.0127  <S**2>=0.000
     133 ->135         0.11434
     133 ->138        -0.22964
     134 ->137         0.55559
 
 Excited State  12:      Singlet-A      5.6688 eV  218.71 nm  f=0.4615  <S**2>=0.000
     131 ->135         0.20366
     132 ->136         0.28027
     133 ->136        -0.22310
     133 ->137        -0.24975
     134 ->138         0.36090
     134 ->140        -0.16421
     134 ->144         0.13902
 
 Excited State  13:      Singlet-A      5.6953 eV  217.70 nm  f=0.0168  <S**2>=0.000
     123 ->135        -0.10198
     126 ->135         0.15733
     127 ->138         0.10681
     128 ->137        -0.11745
     130 ->135         0.44109
     131 ->136        -0.22404
     131 ->141         0.10165
     132 ->135        -0.11809
     133 ->135        -0.10229
     134 ->136        -0.10472
 
 Excited State  14:      Singlet-A      5.7122 eV  217.05 nm  f=0.0275  <S**2>=0.000
     132 ->136        -0.25233
     133 ->136         0.38194
     133 ->137        -0.30522
     134 ->135         0.12708
     134 ->138         0.25017
 
 Excited State  15:      Singlet-A      5.8619 eV  211.51 nm  f=0.0001  <S**2>=0.000
     130 ->135        -0.11843
     131 ->136         0.10982
     133 ->135        -0.14547
     133 ->145        -0.10062
     134 ->139         0.31760
     134 ->141         0.37398
     134 ->143         0.22006
     134 ->146         0.20034
 
 Excited State  16:      Singlet-A      5.8751 eV  211.03 nm  f=0.4825  <S**2>=0.000
     123 ->136         0.10563
     124 ->135         0.27754
     128 ->135        -0.16509
     129 ->135         0.36496
     130 ->136        -0.27206
     133 ->139        -0.12165
     134 ->138         0.18571
     134 ->140         0.14374
 
 Excited State  17:      Singlet-A      5.9753 eV  207.49 nm  f=0.0323  <S**2>=0.000
     121 ->135         0.10426
     123 ->136        -0.21312
     125 ->135         0.45817
     126 ->136        -0.10064
     128 ->135         0.23220
     129 ->135         0.18640
 
 Excited State  18:      Singlet-A      5.9812 eV  207.29 nm  f=0.0054  <S**2>=0.000
     122 ->135         0.12489
     123 ->135         0.27042
     124 ->136         0.10839
     125 ->136        -0.11400
     126 ->135         0.18469
     131 ->136        -0.26969
     131 ->137         0.22686
     132 ->144        -0.14806
     133 ->135         0.12336
     134 ->136         0.15064
     134 ->147        -0.12164
 
 Excited State  19:      Singlet-A      6.0251 eV  205.78 nm  f=0.0028  <S**2>=0.000
     123 ->135        -0.13002
     126 ->135         0.17115
     129 ->136         0.20659
     130 ->135        -0.13720
     131 ->136        -0.22514
     132 ->135         0.12542
     133 ->138        -0.12601
     133 ->140        -0.20561
     134 ->139         0.32697
     134 ->141        -0.14149
     134 ->146        -0.11500
 
 Excited State  20:      Singlet-A      6.0297 eV  205.62 nm  f=0.0084  <S**2>=0.000
     124 ->135        -0.11733
     127 ->141         0.12190
     128 ->135        -0.11513
     128 ->140         0.14075
     130 ->137         0.14855
     131 ->138        -0.15211
     132 ->136         0.16562
     132 ->137        -0.12888
     133 ->141         0.10810
     133 ->143        -0.10201
     134 ->140         0.36044
     134 ->142        -0.17572
     134 ->144        -0.17406
 
 Excited State  21:      Singlet-A      6.0606 eV  204.57 nm  f=0.0129  <S**2>=0.000
     125 ->135        -0.10741
     127 ->136        -0.17996
     127 ->141        -0.11086
     128 ->135         0.25148
     128 ->140        -0.13097
     130 ->136         0.11325
     130 ->137        -0.12915
     131 ->135        -0.10967
     131 ->138         0.20094
     132 ->136         0.17236
     132 ->137         0.17249
     134 ->138         0.12744
     134 ->140         0.24072
     134 ->144        -0.13802
 
 Excited State  22:      Singlet-A      6.0709 eV  204.23 nm  f=0.0117  <S**2>=0.000
     123 ->135         0.17608
     126 ->135         0.11777
     127 ->135         0.30732
     127 ->140        -0.17799
     128 ->136        -0.20299
     128 ->139         0.10854
     128 ->141        -0.14005
     130 ->138         0.13761
     131 ->137        -0.20600
     132 ->138        -0.16522
     134 ->146         0.11522
 
 Excited State  23:      Singlet-A      6.1147 eV  202.76 nm  f=0.0490  <S**2>=0.000
     122 ->135        -0.16736
     123 ->135         0.22016
     125 ->136        -0.16199
     127 ->135         0.10614
     128 ->136        -0.10887
     130 ->135         0.12703
     131 ->136         0.14291
     132 ->138         0.10209
     133 ->140        -0.11114
     133 ->142         0.14427
     134 ->141        -0.21560
     134 ->143         0.23094
     134 ->146        -0.19569
 
 Excited State  24:      Singlet-A      6.1677 eV  201.02 nm  f=0.0000  <S**2>=0.000
     124 ->136         0.13269
     125 ->136         0.16350
     126 ->135        -0.14768
     127 ->135         0.19677
     128 ->136        -0.11839
     131 ->136        -0.22585
     131 ->137         0.11422
     132 ->135         0.10647
     133 ->142         0.11114
     133 ->144         0.17788
     134 ->139        -0.19021
     134 ->141         0.31591
     134 ->143         0.16863
 
 Excited State  25:      Singlet-A      6.1845 eV  200.47 nm  f=0.4327  <S**2>=0.000
     124 ->135        -0.22332
     125 ->135        -0.19498
     126 ->136         0.17793
     129 ->135         0.17632
     131 ->138        -0.10686
     132 ->137        -0.13186
     133 ->139        -0.19585
     133 ->143         0.13114
     134 ->140         0.14921
     134 ->142         0.34601
     134 ->144         0.21392
 
 Excited State  26:      Singlet-A      6.2508 eV  198.35 nm  f=0.2411  <S**2>=0.000
     124 ->135        -0.17910
     131 ->140        -0.11556
     132 ->141         0.10888
     133 ->139        -0.10845
     133 ->141        -0.25780
     133 ->143        -0.14560
     134 ->140        -0.24082
     134 ->144        -0.20246
     134 ->145         0.30790
 
 Excited State  27:      Singlet-A      6.2731 eV  197.64 nm  f=0.0009  <S**2>=0.000
     122 ->135         0.13114
     123 ->135        -0.13712
     125 ->136         0.14135
     126 ->135        -0.19274
     127 ->135         0.25928
     129 ->136        -0.11680
     131 ->137         0.12754
     131 ->139         0.15433
     132 ->140         0.14445
     133 ->138         0.11088
     133 ->142         0.10350
     134 ->139         0.13055
     134 ->141        -0.16088
     134 ->143         0.20320
     134 ->146         0.15744
 
 Excited State  28:      Singlet-A      6.2776 eV  197.50 nm  f=0.0316  <S**2>=0.000
     126 ->136        -0.11418
     128 ->135         0.17854
     129 ->135        -0.13667
     131 ->144         0.10232
     132 ->136        -0.19077
     133 ->141         0.12691
     133 ->143        -0.15859
     134 ->140         0.12215
     134 ->142        -0.15320
     134 ->144         0.29578
     134 ->145         0.35315
 
 Excited State  29:      Singlet-A      6.3017 eV  196.75 nm  f=0.1168  <S**2>=0.000
     124 ->135         0.20319
     125 ->135        -0.19516
     127 ->136        -0.20736
     128 ->135         0.38980
     130 ->137         0.15394
     131 ->138        -0.16619
     132 ->137        -0.15287
     134 ->145        -0.18239
 
 Excited State  30:      Singlet-A      6.3177 eV  196.25 nm  f=0.0094  <S**2>=0.000
     126 ->135         0.14718
     127 ->135         0.34740
     128 ->136        -0.19321
     129 ->137         0.13409
     130 ->138        -0.17687
     133 ->142        -0.15107
     133 ->145         0.10606
     134 ->143        -0.27516
 
 Excited State  31:      Singlet-A      6.3719 eV  194.58 nm  f=0.0003  <S**2>=0.000
     123 ->135         0.26005
     124 ->136         0.22152
     126 ->135        -0.24847
     129 ->139         0.10644
     131 ->136        -0.15014
     131 ->137        -0.10674
     133 ->144        -0.13813
     133 ->145         0.15227
     134 ->146         0.29786
     134 ->147         0.11056
 
 Excited State  32:      Singlet-A      6.4376 eV  192.59 nm  f=0.2889  <S**2>=0.000
     121 ->135        -0.15585
     122 ->136         0.12873
     123 ->137        -0.11166
     124 ->138        -0.10876
     126 ->139         0.17972
     126 ->143        -0.12469
     128 ->140        -0.10675
     129 ->138         0.15628
     129 ->142         0.19686
     130 ->136        -0.10743
     130 ->139        -0.18775
     131 ->145         0.12978
     132 ->139         0.10398
     132 ->141         0.13950
     133 ->136         0.10818
     133 ->141        -0.13184
     133 ->147        -0.13019
     134 ->144        -0.11865
 
 Excited State  33:      Singlet-A      6.5033 eV  190.65 nm  f=0.0643  <S**2>=0.000
     120 ->135         0.11506
     124 ->135        -0.19285
     131 ->135         0.11847
     132 ->136        -0.18556
     133 ->137         0.24636
     133 ->139         0.14563
     133 ->141         0.17368
     133 ->143         0.13712
     133 ->146         0.30810
     134 ->138         0.20527
     134 ->144        -0.12581
 
 Excited State  34:      Singlet-A      6.5185 eV  190.20 nm  f=0.0484  <S**2>=0.000
     123 ->135        -0.19810
     124 ->137         0.10981
     126 ->138        -0.12882
     126 ->142        -0.10319
     129 ->139        -0.15141
     129 ->143         0.13702
     130 ->142         0.15104
     132 ->144         0.14799
     133 ->138         0.19905
     134 ->137         0.11544
     134 ->141        -0.11031
     134 ->146         0.29208
     134 ->147        -0.17021
 
 Excited State  35:      Singlet-A      6.5779 eV  188.48 nm  f=0.0000  <S**2>=0.000
     125 ->137         0.15276
     126 ->135         0.13527
     127 ->135         0.11555
     127 ->140         0.16070
     128 ->141         0.13826
     130 ->135        -0.15259
     130 ->138         0.11759
     131 ->136        -0.15564
     131 ->137        -0.16720
     131 ->143         0.13672
     133 ->138        -0.13424
     133 ->140         0.13549
     133 ->144        -0.18406
     134 ->143         0.23746
 
 Excited State  36:      Singlet-A      6.5895 eV  188.15 nm  f=0.3002  <S**2>=0.000
     124 ->135         0.16220
     125 ->138        -0.14797
     126 ->137         0.10506
     127 ->141         0.10291
     128 ->135         0.10511
     128 ->140         0.12520
     129 ->135        -0.19956
     129 ->138         0.14733
     129 ->144         0.10060
     130 ->137        -0.16484
     131 ->138         0.10863
     131 ->142         0.11280
     133 ->137         0.17133
     134 ->138         0.17720
     134 ->142         0.20063
 
 Excited State  37:      Singlet-A      6.6661 eV  185.99 nm  f=0.0030  <S**2>=0.000
     124 ->136        -0.14543
     124 ->139        -0.11002
     126 ->135         0.19650
     126 ->142         0.17877
     129 ->137        -0.10501
     129 ->139         0.17950
     130 ->144         0.11134
     131 ->136         0.12425
     131 ->139        -0.10899
     133 ->140        -0.18030
     133 ->144         0.17337
     133 ->145         0.13892
     134 ->139        -0.12006
     134 ->143         0.12824
     134 ->146         0.15933
 
 Excited State  38:      Singlet-A      6.6689 eV  185.92 nm  f=0.0421  <S**2>=0.000
     124 ->135        -0.10335
     130 ->137         0.19695
     131 ->135        -0.14826
     132 ->137         0.24057
     132 ->146         0.20894
     133 ->136         0.16564
     133 ->137         0.24984
     133 ->147        -0.10714
     134 ->138         0.12456
     134 ->144         0.23358
     134 ->145        -0.12075
 
 Excited State  39:      Singlet-A      6.7091 eV  184.80 nm  f=0.9612  <S**2>=0.000
     126 ->139         0.10003
     127 ->139        -0.14995
     127 ->141         0.16140
     128 ->140         0.21628
     129 ->135         0.14384
     129 ->140         0.12761
     129 ->142         0.14267
     130 ->136         0.15418
     130 ->139        -0.13520
     131 ->142        -0.10296
     132 ->137         0.26810
     133 ->137         0.13496
     134 ->145         0.12379
 
 Excited State  40:      Singlet-A      6.7308 eV  184.20 nm  f=0.3069  <S**2>=0.000
     120 ->135        -0.13872
     122 ->136        -0.11698
     129 ->135         0.12716
     130 ->136         0.23361
     132 ->137        -0.17230
     133 ->137         0.23350
     133 ->139        -0.13875
     133 ->141        -0.16825
     133 ->143        -0.15646
     133 ->146        -0.12433
     133 ->147        -0.14342
     134 ->138         0.13950
     134 ->142        -0.15938
     134 ->144         0.14321
     134 ->145        -0.11172
 
 Excited State  41:      Singlet-A      6.7390 eV  183.98 nm  f=0.0619  <S**2>=0.000
     126 ->142        -0.10553
     127 ->138         0.17772
     127 ->140         0.18155
     128 ->137        -0.16465
     128 ->139        -0.11668
     128 ->141         0.11084
     129 ->137        -0.15740
     130 ->138         0.11121
     131 ->139         0.18492
     131 ->141        -0.13835
     132 ->140         0.21244
     133 ->144         0.10566
     133 ->145         0.17543
     134 ->147         0.16008
 
 Excited State  42:      Singlet-A      6.7552 eV  183.54 nm  f=0.2760  <S**2>=0.000
     120 ->135         0.13092
     124 ->142         0.10642
     126 ->139        -0.11915
     127 ->137         0.20096
     128 ->138        -0.18637
     130 ->136         0.16696
     130 ->141         0.12458
     131 ->140         0.25843
     132 ->139         0.26497
     132 ->146         0.15526
 
 Excited State  43:      Singlet-A      6.7647 eV  183.28 nm  f=0.5485  <S**2>=0.000
     120 ->135        -0.25496
     121 ->135        -0.14178
     127 ->137        -0.11393
     128 ->138         0.11273
     128 ->140         0.12099
     130 ->136         0.21889
     130 ->137        -0.10581
     130 ->139         0.13833
     131 ->140        -0.11453
     132 ->141         0.29545
     132 ->146         0.12064
 
 Excited State  44:      Singlet-A      6.7831 eV  182.78 nm  f=0.1739  <S**2>=0.000
     127 ->135         0.10048
     127 ->138        -0.18758
     127 ->140         0.14919
     128 ->137         0.19381
     128 ->141         0.11518
     128 ->146        -0.10019
     129 ->139        -0.14205
     130 ->140         0.17435
     131 ->139        -0.13544
     131 ->141         0.11548
     133 ->138        -0.15600
     133 ->140        -0.15246
     133 ->142         0.11435
     133 ->144         0.10365
     133 ->145         0.15099
     134 ->146         0.12622
 
 Excited State  45:      Singlet-A      6.8111 eV  182.03 nm  f=0.0008  <S**2>=0.000
     121 ->136        -0.14480
     122 ->135         0.41680
     129 ->136        -0.13152
     131 ->137        -0.13336
     133 ->144         0.16939
     133 ->149         0.10809
     134 ->147        -0.21950
 
 Excited State  46:      Singlet-A      6.8181 eV  181.84 nm  f=0.0570  <S**2>=0.000
     120 ->135         0.30473
     121 ->135         0.11784
     126 ->137        -0.12744
     127 ->139        -0.10096
     128 ->140         0.13694
     130 ->137        -0.14052
     131 ->138         0.11960
     132 ->137        -0.13387
     132 ->139         0.15156
     132 ->141         0.15393
     132 ->143         0.12606
     132 ->147         0.13001
     133 ->139        -0.10385
     133 ->146        -0.11711
     134 ->142        -0.11213
     134 ->145        -0.17576
 
 Excited State  47:      Singlet-A      6.8756 eV  180.33 nm  f=0.1495  <S**2>=0.000
     116 ->135         0.10937
     120 ->135        -0.16362
     121 ->135         0.44225
     123 ->136         0.24148
     126 ->136         0.11258
     131 ->138        -0.11285
     133 ->147        -0.11532
     134 ->149         0.17675
 
 Excited State  48:      Singlet-A      6.9049 eV  179.56 nm  f=0.0661  <S**2>=0.000
     122 ->135        -0.10851
     126 ->138         0.10104
     127 ->140         0.12375
     129 ->136         0.14885
     131 ->137        -0.21677
     132 ->138        -0.13516
     133 ->138         0.37544
     133 ->142        -0.11856
     134 ->137         0.21665
     134 ->146        -0.13282
 
 Excited State  49:      Singlet-A      6.9318 eV  178.86 nm  f=0.0018  <S**2>=0.000
     122 ->135         0.11392
     124 ->136         0.25238
     125 ->136         0.10020
     128 ->136        -0.14916
     129 ->136         0.33478
     129 ->137        -0.14770
     130 ->135         0.20880
     131 ->136         0.23583
     133 ->138        -0.12684
     133 ->145        -0.12083
     134 ->147        -0.11079
 
 Excited State  50:      Singlet-A      6.9355 eV  178.77 nm  f=0.1940  <S**2>=0.000
     120 ->135         0.38138
     124 ->135         0.10003
     127 ->137        -0.17041
     128 ->138         0.13417
     129 ->140        -0.10373
     130 ->136         0.17949
     131 ->138        -0.12427
     132 ->137         0.11439
     132 ->139        -0.13003
     133 ->139        -0.11709
 
 Excited State  51:      Singlet-A      6.9730 eV  177.81 nm  f=0.1258  <S**2>=0.000
     122 ->135         0.15898
     125 ->136         0.14372
     125 ->137        -0.11630
     131 ->139        -0.23758
     131 ->141        -0.21723
     132 ->145        -0.13429
     133 ->140         0.27953
     133 ->142        -0.11584
     133 ->145         0.10101
     134 ->143         0.11121
 
 Excited State  52:      Singlet-A      6.9904 eV  177.36 nm  f=0.0076  <S**2>=0.000
     121 ->136        -0.13356
     123 ->135        -0.16995
     124 ->137        -0.13389
     125 ->136        -0.25163
     128 ->136        -0.11900
     128 ->137         0.11523
     129 ->136        -0.14743
     131 ->137         0.11849
     131 ->139        -0.14200
     132 ->138        -0.15049
     132 ->144        -0.15389
     133 ->140         0.25905
     134 ->139         0.11999
 
 Excited State  53:      Singlet-A      6.9992 eV  177.14 nm  f=0.1782  <S**2>=0.000
     129 ->140         0.10288
     130 ->141        -0.12926
     131 ->140        -0.10360
     131 ->142         0.10698
     133 ->139         0.36460
     133 ->141        -0.33369
     133 ->143         0.10673
     134 ->140         0.27011
 
 Excited State  54:      Singlet-A      7.0154 eV  176.73 nm  f=0.0251  <S**2>=0.000
     125 ->136         0.11792
     126 ->135         0.10730
     127 ->138        -0.10567
     128 ->137         0.14455
     129 ->137        -0.13049
     130 ->138         0.11831
     130 ->144         0.13891
     131 ->139         0.14295
     131 ->141         0.22990
     131 ->143        -0.11172
     132 ->138         0.11055
     132 ->140        -0.18174
     133 ->138         0.23061
     133 ->140         0.17371
     133 ->145         0.12713
     134 ->139         0.13976
 
 Excited State  55:      Singlet-A      7.0498 eV  175.87 nm  f=0.3526  <S**2>=0.000
     126 ->136         0.13153
     126 ->137         0.15111
     129 ->135        -0.10640
[...]
                 (A) (A) (A) (A) (A) (A) (A) (A) (A) (A) (A) (A)
                 (A) (A) (A) (A) (A) (A) (A) (A) (A) (A) (A) (A)
                 (A) (A) (A) (A) (A) (A) (A) (A) (A) (A) (A) (A)
                 (A) (A) (A) (A) (A) (A) (A) (A) (A) (A) (A) (A)
                 (A) (A) (A) (A) (A) (A) (A) (A) (A) (A) (A) (A)
                 (A) (A) (A) (A) (A) (A) (A) (A) (A) (A) (A) (A)
                 (A) (A) (A) (A) (A) (A) (A) (A) (A) (A) (A) (A)
                 (A) (A) (A) (A) (A) (A) (A) (A) (A) (A) (A) (A)
                 (A) (A) (A) (A) (A) (A) (A) (A) (A) (A) (A) (A)
                 (A) (A) (A) (A) (A) (A) (A) (A) (A) (A) (A) (A)
                 (A) (A) (A) (A) (A) (A) (A) (A) (A) (A) (A) (A)
                 (A) (A) (A) (A) (A) (A) (A) (A) (A) (A) (A) (A)
                 (A) (A) (A) (A) (A) (A) (A) (A) (A) (A) (A) (A)
                 (A) (A) (A) (A) (A) (A) (A) (A) (A) (A) (A) (A)
                 (A) (A)
 The electronic state is 1-A.
 Alpha  occ. eigenvalues --  -10.32409 -10.32408 -10.32278 -10.32274 -10.31925
 Alpha  occ. eigenvalues --  -10.31925 -10.31834 -10.31834 -10.31773 -10.31770
 Alpha  occ. eigenvalues --  -10.31691 -10.31691 -10.30870 -10.30870 -10.30851
 Alpha  occ. eigenvalues --  -10.30851 -10.30820 -10.30820 -10.30794 -10.30794
 Alpha  occ. eigenvalues --  -10.30727 -10.30727 -10.30700 -10.30700 -10.30694
 Alpha  occ. eigenvalues --  -10.30694 -10.30681 -10.30681 -10.30679 -10.30679
 Alpha  occ. eigenvalues --  -10.30665 -10.30665 -10.30626 -10.30626 -10.30611
 Alpha  occ. eigenvalues --  -10.30611 -10.30590 -10.30590 -10.30564 -10.30564
 Alpha  occ. eigenvalues --   -1.00352  -0.98064  -0.97231  -0.96468  -0.96200
 Alpha  occ. eigenvalues --   -0.95960  -0.92429  -0.92098  -0.88668  -0.86759
 Alpha  occ. eigenvalues --   -0.85830  -0.85448  -0.85240  -0.85208  -0.84954
 Alpha  occ. eigenvalues --   -0.84929  -0.84553  -0.84286  -0.82004  -0.80208
 Alpha  occ. eigenvalues --   -0.74738  -0.74420  -0.71395  -0.70824  -0.70777
 Alpha  occ. eigenvalues --   -0.70414  -0.70201  -0.69868  -0.69401  -0.69196
 Alpha  occ. eigenvalues --   -0.69195  -0.67418  -0.64914  -0.63314  -0.62545
 Alpha  occ. eigenvalues --   -0.61273  -0.61120  -0.60259  -0.59181  -0.57440
 Alpha  occ. eigenvalues --   -0.56078  -0.55979  -0.55959  -0.55342  -0.54967
 Alpha  occ. eigenvalues --   -0.54920  -0.53957  -0.53656  -0.53612  -0.53589
 Alpha  occ. eigenvalues --   -0.53372  -0.52513  -0.51936  -0.51790  -0.51788
 Alpha  occ. eigenvalues --   -0.51171  -0.51138  -0.50770  -0.50567  -0.50315
 Alpha  occ. eigenvalues --   -0.49025  -0.48047  -0.47802  -0.46885  -0.46728
 Alpha  occ. eigenvalues --   -0.46415  -0.45903  -0.45471  -0.45198  -0.44335
 Alpha  occ. eigenvalues --   -0.44088  -0.43639  -0.43562  -0.43292  -0.43031
 Alpha  occ. eigenvalues --   -0.42639  -0.42596  -0.42191  -0.40966  -0.39743
 Alpha  occ. eigenvalues --   -0.38583  -0.37847  -0.34820  -0.34532  -0.34264
 Alpha  occ. eigenvalues --   -0.33853  -0.33667  -0.33599  -0.33139  -0.32642
 Alpha  occ. eigenvalues --   -0.31895  -0.31718  -0.30425  -0.28937
 Alpha virt. eigenvalues --    0.00585   0.02617   0.04149   0.04800   0.04928
 Alpha virt. eigenvalues --    0.05149   0.05467   0.06099   0.06514   0.06654
 Alpha virt. eigenvalues --    0.07066   0.07375   0.10312   0.11814   0.11993
 Alpha virt. eigenvalues --    0.13841   0.14405   0.14741   0.15660   0.15978
 Alpha virt. eigenvalues --    0.16176   0.17549   0.17746   0.18254   0.19157
 Alpha virt. eigenvalues --    0.19572   0.20050   0.20495   0.20642   0.21240
 Alpha virt. eigenvalues --    0.21515   0.21757   0.22107   0.22182   0.22738
 Alpha virt. eigenvalues --    0.22792   0.22855   0.23167   0.23341   0.23353
 Alpha virt. eigenvalues --    0.23604   0.24283   0.24825   0.25088   0.26582
 Alpha virt. eigenvalues --    0.27000   0.27692   0.28261   0.29723   0.30118
 Alpha virt. eigenvalues --    0.30656   0.30978   0.31239   0.32397   0.33045
 Alpha virt. eigenvalues --    0.34328   0.34525   0.34704   0.34997   0.35791
 Alpha virt. eigenvalues --    0.36110   0.36674   0.36679   0.37355   0.38063
 Alpha virt. eigenvalues --    0.38076   0.38268   0.38513   0.38737   0.39084
 Alpha virt. eigenvalues --    0.39151   0.39460   0.39788   0.40198   0.40559
 Alpha virt. eigenvalues --    0.41388   0.41632   0.44996   0.45759   0.46895
 Alpha virt. eigenvalues --    0.47496   0.47798   0.48318   0.48962   0.49258
 Alpha virt. eigenvalues --    0.49663   0.50300   0.50719   0.51012   0.51458
 Alpha virt. eigenvalues --    0.52124   0.52225   0.52504   0.52571   0.53090
 Alpha virt. eigenvalues --    0.53465   0.53522   0.54464   0.55007   0.55160
 Alpha virt. eigenvalues --    0.55335   0.55631   0.55904   0.56017   0.56143
 Alpha virt. eigenvalues --    0.56343   0.56751   0.57196   0.57230   0.57451
 Alpha virt. eigenvalues --    0.57825   0.57842   0.57989   0.58603   0.58786
 Alpha virt. eigenvalues --    0.58908   0.59076   0.59095   0.59248   0.59358
 Alpha virt. eigenvalues --    0.59557   0.59664   0.59904   0.60062   0.60276
 Alpha virt. eigenvalues --    0.60566   0.60730   0.60811   0.61376   0.61663
 Alpha virt. eigenvalues --    0.61706   0.62147   0.62748   0.62824   0.62966
 Alpha virt. eigenvalues --    0.63222   0.63491   0.63772   0.64178   0.64525
 Alpha virt. eigenvalues --    0.64813   0.65169   0.66222   0.66396   0.66573
 Alpha virt. eigenvalues --    0.67118   0.67145   0.67785   0.67849   0.68648
 Alpha virt. eigenvalues --    0.68967   0.69143   0.69795   0.69818   0.70438
 Alpha virt. eigenvalues --    0.70657   0.70836   0.71284   0.72162   0.72333
 Alpha virt. eigenvalues --    0.72357   0.73129   0.73163   0.73250   0.73902
 Alpha virt. eigenvalues --    0.73950   0.74413   0.74666   0.75347   0.75593
 Alpha virt. eigenvalues --    0.75603   0.75794   0.76168   0.76255   0.76512
 Alpha virt. eigenvalues --    0.76988   0.77927   0.78205   0.79057   0.79512
 Alpha virt. eigenvalues --    0.79775   0.80121   0.80275   0.80634   0.81272
 Alpha virt. eigenvalues --    0.81606   0.81699   0.81932   0.82933   0.83087
 Alpha virt. eigenvalues --    0.83462   0.83705   0.84073   0.84253   0.85506
 Alpha virt. eigenvalues --    0.85652   0.86228   0.87750   0.87804   0.89322
 Alpha virt. eigenvalues --    0.89719   0.89883   0.91746   0.92003   0.92266
 Alpha virt. eigenvalues --    0.92709   0.93197   0.94370   0.95064   0.95661
 Alpha virt. eigenvalues --    0.96883   0.97083   0.97410   0.97421   0.97644
 Alpha virt. eigenvalues --    0.98380   0.98911   0.99082   1.00040   1.00138
 Alpha virt. eigenvalues --    1.00465   1.00594   1.01081   1.01336   1.01553
 Alpha virt. eigenvalues --    1.02308   1.02408   1.02529   1.02819   1.03044
 Alpha virt. eigenvalues --    1.03364   1.03650   1.04050   1.04146   1.04926
 Alpha virt. eigenvalues --    1.04967   1.05509   1.05897   1.06445   1.07196
 Alpha virt. eigenvalues --    1.07414   1.07839   1.07887   1.08727   1.08966
 Alpha virt. eigenvalues --    1.09208   1.09263   1.09516   1.09905   1.10035
 Alpha virt. eigenvalues --    1.10288   1.10721   1.10754   1.11446   1.11480
 Alpha virt. eigenvalues --    1.12162   1.12458   1.12917   1.12978   1.13244
 Alpha virt. eigenvalues --    1.13440   1.13797   1.14461   1.14882   1.15148
 Alpha virt. eigenvalues --    1.15899   1.16070   1.16224   1.16744   1.16864
 Alpha virt. eigenvalues --    1.17382   1.17676   1.18042   1.18355   1.18910
 Alpha virt. eigenvalues --    1.20646   1.21140   1.22208   1.22391   1.23303
 Alpha virt. eigenvalues --    1.23651   1.23813   1.25153   1.26185   1.26923
 Alpha virt. eigenvalues --    1.27478   1.29726   1.29963   1.30598   1.31169
 Alpha virt. eigenvalues --    1.33265   1.34761   1.35206   1.35760   1.35898
 Alpha virt. eigenvalues --    1.36301   1.37518   1.38180   1.38273   1.39352
 Alpha virt. eigenvalues --    1.39949   1.40603   1.41172   1.41990   1.42571
 Alpha virt. eigenvalues --    1.43927   1.44891   1.46914   1.47333   1.48532
 Alpha virt. eigenvalues --    1.49670   1.50481   1.52812   1.53577   1.53980
 Alpha virt. eigenvalues --    1.54086   1.55078   1.55270   1.55988   1.56471
 Alpha virt. eigenvalues --    1.56736   1.57093   1.57245   1.57538   1.57730
 Alpha virt. eigenvalues --    1.57762   1.57992   1.58348   1.59050   1.59140
 Alpha virt. eigenvalues --    1.59443   1.59585   1.60002   1.60654   1.60851
 Alpha virt. eigenvalues --    1.61654   1.62272   1.62432   1.63400   1.63408
 Alpha virt. eigenvalues --    1.63768   1.64434   1.64531   1.65152   1.66096
 Alpha virt. eigenvalues --    1.67190   1.67542   1.68085   1.68096   1.68476
 Alpha virt. eigenvalues --    1.68876   1.69260   1.69392   1.69802   1.70153
 Alpha virt. eigenvalues --    1.70257   1.70655   1.70745   1.70870   1.71043
 Alpha virt. eigenvalues --    1.71611   1.71899   1.72032   1.72578   1.72815
 Alpha virt. eigenvalues --    1.73160   1.73253   1.73881   1.74049   1.74337
 Alpha virt. eigenvalues --    1.74502   1.74540   1.74853   1.75212   1.75223
 Alpha virt. eigenvalues --    1.75925   1.76097   1.76785   1.76995   1.77059
 Alpha virt. eigenvalues --    1.77590   1.77889   1.78208   1.78478   1.79212
 Alpha virt. eigenvalues --    1.79895   1.80479   1.80620   1.81409   1.81479
 Alpha virt. eigenvalues --    1.82529   1.82951   1.83757   1.84277   1.84424
 Alpha virt. eigenvalues --    1.84742   1.84870   1.85593   1.85835   1.86305
 Alpha virt. eigenvalues --    1.86745   1.86889   1.87090   1.87567   1.88363
 Alpha virt. eigenvalues --    1.89452   1.89524   1.89576   1.89954   1.90252
 Alpha virt. eigenvalues --    1.90352   1.90610   1.90949   1.91521   1.91785
 Alpha virt. eigenvalues --    1.92156   1.92497   1.92554   1.92991   1.93173
 Alpha virt. eigenvalues --    1.93234   1.93564   1.93708   1.93924   1.94377
 Alpha virt. eigenvalues --    1.94512   1.94631   1.94992   1.95299   1.95720
 Alpha virt. eigenvalues --    1.95843   1.96311   1.97049   1.97504   1.97895
 Alpha virt. eigenvalues --    1.98093   1.99584   1.99643   2.00385   2.00674
 Alpha virt. eigenvalues --    2.01164   2.01309   2.03133   2.03776   2.04106
 Alpha virt. eigenvalues --    2.04525   2.04651   2.05011   2.05635   2.05698
 Alpha virt. eigenvalues --    2.06260   2.06642   2.06941   2.07136   2.07572
 Alpha virt. eigenvalues --    2.07754   2.08030   2.08071   2.08709   2.09030
 Alpha virt. eigenvalues --    2.09450   2.09892   2.09898   2.10681   2.11525
 Alpha virt. eigenvalues --    2.12751   2.14271   2.15141   2.16087   2.17080
 Alpha virt. eigenvalues --    2.17985   2.18558   2.19055   2.20722   2.20845
 Alpha virt. eigenvalues --    2.21780   2.21863   2.23881   2.24870   2.25876
 Alpha virt. eigenvalues --    2.26544   2.29354   2.29563   2.30430   2.31067
 Alpha virt. eigenvalues --    2.31799   2.32011   2.32776   2.33558   2.33973
 Alpha virt. eigenvalues --    2.35487   2.37728   2.39711   2.40425   2.40961
 Alpha virt. eigenvalues --    2.43404   2.45111   2.45304   2.46858   2.46877
 Alpha virt. eigenvalues --    2.47268   2.47443   2.48136   2.48531   2.50278
 Alpha virt. eigenvalues --    2.50658   2.51515   2.52077   2.52263   2.52655
 Alpha virt. eigenvalues --    2.52798   2.53498   2.53535   2.53814   2.54330
 Alpha virt. eigenvalues --    2.55121   2.55618   2.58151   2.58756   2.58757
 Alpha virt. eigenvalues --    2.59481   2.62820   2.64737   2.66911   2.67691
 Alpha virt. eigenvalues --    2.72737   2.72991   2.74062   2.74105   2.74769
 Alpha virt. eigenvalues --    2.74812   2.76751   2.77297   2.78652   2.79458
 Alpha virt. eigenvalues --    2.80468   2.81299   2.81876   2.82350   2.82715
 Alpha virt. eigenvalues --    2.83362   2.84809   2.85067   2.86675   2.88261
 Alpha virt. eigenvalues --    2.88589   2.90247   2.91304   2.91835   2.92881
 Alpha virt. eigenvalues --    2.93603   2.94445   2.96020   2.99070   2.99741
 Alpha virt. eigenvalues --    3.01091   3.02279   3.02797   3.05478   3.07272
 Alpha virt. eigenvalues --    3.61503   3.62066   3.64944   3.65107   3.67077
 Alpha virt. eigenvalues --    3.67333
          Condensed to atoms (all electrons):
 Mulliken charges:
               1
     1  C    0.000172
     2  C   -0.004784
     3  C   -0.011681
     4  C    0.013974
     5  C   -0.030979
     6  C   -0.005027
     7  C    0.019251
     8  C   -0.030970
     9  C    0.013974
    10  C    0.019267
    11  C   -0.005032
    12  C    0.000172
    13  C   -0.004784
    14  C   -0.011681
    15  C   -0.007586
    16  C   -0.007587
    17  C   -0.046192
    18  C   -0.048345
    19  C   -0.046185
    20  C   -0.048344
    21  C   -0.007361
    22  C   -0.005023
    23  C   -0.015867
    24  C   -0.010206
    25  C    0.038561
    26  C   -0.020371
    27  C   -0.002166
    28  C   -0.017624
    29  C   -0.007970
    30  C    0.002780
    31  C   -0.020369
    32  C   -0.002166
    33  C   -0.017624
    34  C   -0.007970
    35  C    0.002783
    36  C   -0.007358
    37  C   -0.005023
    38  C   -0.015866
    39  C   -0.010208
    40  C    0.038560
    41  H    0.019492
    42  H    0.018476
    43  H   -0.004988
    44  H   -0.001689
    45  H   -0.001690
    46  H    0.019493
    47  H    0.018476
    48  H   -0.004989
    49  H   -0.000729
    50  H    0.020789
    51  H    0.020276
    52  H    0.019148
    53  H   -0.025943
    54  H    0.017584
    55  H    0.023119
    56  H    0.021432
    57  H    0.023129
    58  H    0.016338
    59  H    0.017582
    60  H    0.023119
    61  H    0.021431
    62  H    0.023128
    63  H    0.016337
    64  H   -0.000729
    65  H    0.020789
    66  H    0.020276
    67  H    0.019148
    68  H   -0.025949
 Sum of Mulliken charges =   0.00000
 Mulliken charges with hydrogens summed into heavy atoms:
               1
     1  C    0.019664
     2  C    0.013691
     3  C   -0.016670
     4  C    0.013974
     5  C   -0.030979
     6  C   -0.006716
     7  C    0.019251
     8  C   -0.030970
     9  C    0.013974
    10  C    0.019267
    11  C   -0.006722
    12  C    0.019665
    13  C    0.013692
    14  C   -0.016670
    15  C   -0.007586
    16  C   -0.007587
    17  C   -0.046192
    18  C   -0.048345
    19  C   -0.046185
    20  C   -0.048344
    21  C   -0.008089
    22  C    0.015766
    23  C    0.004409
    24  C    0.008942
    25  C    0.012617
    26  C   -0.002787
    27  C    0.020953
    28  C    0.003808
    29  C    0.015159
    30  C    0.019118
    31  C   -0.002788
    32  C    0.020953
    33  C    0.003807
    34  C    0.015158
    35  C    0.019120
    36  C   -0.008087
    37  C    0.015765
    38  C    0.004410
    39  C    0.008940
    40  C    0.012611
 Electronic spatial extent (au):  <R**2>=          16798.9364
 Charge=              0.0000 electrons
 Dipole moment (field-independent basis, Debye):
    X=              0.0000    Y=              0.0000    Z=             -0.7629  Tot=              0.7629
 Quadrupole moment (field-independent basis, Debye-Ang):
   XX=           -199.2091   YY=           -204.6181   ZZ=           -228.6382
   XY=              4.4934   XZ=              0.0001   YZ=             -0.0003
 Traceless Quadrupole moment (field-independent basis, Debye-Ang):
   XX=             11.6127   YY=              6.2037   ZZ=            -17.8164
   XY=              4.4934   XZ=              0.0001   YZ=             -0.0003
 Octapole moment (field-independent basis, Debye-Ang**2):
  XXX=              0.0014  YYY=              0.0026  ZZZ=            -28.2855  XYY=             -0.0016
  XXY=             -0.0009  XXZ=             41.2596  XZZ=              0.0014  YZZ=             -0.0044
  YYZ=            -33.1233  XYZ=              1.0511
 Hexadecapole moment (field-independent basis, Debye-Ang**3):
 XXXX=         -10117.2368 YYYY=          -8042.1282 ZZZZ=          -3893.5510 XXXY=            127.6731
 XXXZ=              0.0020 YYYX=            -15.0135 YYYZ=              0.0031 ZZZX=              0.0018
 ZZZY=             -0.0074 XXYY=          -2802.0224 XXZZ=          -2527.7720 YYZZ=          -1750.5908
 XXYZ=             -0.0073 YYXZ=             -0.0006 ZZXY=             60.4271
 N-N= 4.281776926330D+03 E-N=-1.213643280457D+04  KE= 1.530120105779D+03
 1|1|UNPC-CHSHR-P01|SP|RwB97XD TD-FC|CC-pVDZ|C40H28|IBS|20-May-2024|0||
 # td=(nstates=60) wb97xd/cc-pvdz scrf=(cpcm,solvent=n,n-DiMethylFormam
 ide) geom=AllCheck guess=read maxdisk=900GB integral(ultrafinegrid)||G
 1||0,1|C,0,-3.0010869139,-1.1964805878,4.668513835|C,0,-2.8182224508,0
 .1383034023,4.3047563853|C,0,-1.7143689534,0.5105171966,3.539760672|C,
 0,-0.7880268604,-0.4496903822,3.1233295866|C,0,-0.9732859708,-1.795852
 9904,3.4933085152|C,0,-2.0779179414,-2.1591192714,4.2674133457|C,0,0.4
 369128962,-0.1623276457,2.3242840353|C,0,1.6280117646,-0.8758041001,2.
 8650041317|C,0,1.4435839984,-2.2205609448,3.2404683888|C,0,0.068771271
 6,-2.7624952595,3.0462502428|C,0,2.8752337642,-0.2703170631,3.03598969
 64|C,0,3.9393907437,-0.9934762751,3.5692873421|C,0,3.7581789101,-2.325
 4758565,3.9439166092|C,0,2.5148612102,-2.9345923211,3.7845723626|C,0,-
 0.213477097,-3.9124174672,2.3973843851|C,0,0.4457324536,0.5231438628,1
 .1610665801|C,0,-1.6051534357,-4.302039235,2.0151232445|C,0,0.85537472
 65,-4.8096133773,1.856384372|C,0,1.6454863192,0.5867743013,0.271552282
 7|C,0,-0.7921517647,1.1332496952,0.5818343538|C,0,-2.1314068349,-5.549
 9163479,2.3701504119|C,0,-3.4245172018,-5.9076619256,1.9899307422|C,0,
 -4.2012819125,-5.0319472098,1.2306481619|C,0,-3.676297604,-3.795666363
 7,0.8521018502|C,0,-2.3890830243,-3.4346825005,1.2422878244|C,0,1.3547
 753431,-5.8963966345,2.5815477559|C,0,2.3407787295,-6.7182045906,2.033
 9704232|C,0,2.8345947611,-6.4652618997,0.7542716809|C,0,2.3308125952,-
 5.3914273252,0.0189346201|C,0,1.3423395966,-4.5747211294,0.5648503148|
 C,0,-1.1467798924,2.4658724938,0.8157477111|C,0,-2.3017493228,3.000696
 6686,0.243541665|C,0,-3.1117847003,2.2107146858,-0.5720764452|C,0,-2.7
 566951259,0.8843770703,-0.8218325831|C,0,-1.6001820973,0.3530815315,-0
 .254105354|C,0,2.1594995543,1.8138168707,-0.1647326351|C,0,3.267634725
 2,1.8573999985,-1.0102020822|C,0,3.8635541268,0.6745940784,-1.44906297
 12|C,0,3.3434027216,-0.5534171158,-1.0383005231|C,0,2.2439119905,-0.59
 55743328,-0.1845914242|H,0,-3.8592959595,-1.486846026,5.2769031728|H,0
 ,-3.5321210156,0.8978572474,4.6279557728|H,0,-1.5647562648,1.556912301
 4,3.2762932082|H,0,-2.2127182006,-3.2033741788,4.5540205576|H,0,3.0096
 505392,0.7732986906,2.7468859751|H,0,4.9097359366,-0.5126236416,3.7041
 333563|H,0,4.5857910937,-2.8918755559,4.3743587539|H,0,2.3728141384,-3
 .9681395782,4.0981735804|H,0,-1.5286236542,-6.2451988497,2.9579459462|
 H,0,-3.8267950241,-6.8779494403,2.2870992456|H,0,-5.2117163751,-5.3145
 516671,0.929965026|H,0,-4.271025561,-3.1068071343,0.2490432082|H,0,-1.
 9830218411,-2.4642556095,0.9523227113|H,0,0.9817594657,-6.0909045016,3
 .5895606918|H,0,2.7294702161,-7.5566643535,2.6149026827|H,0,3.60987373
 69,-7.1051297002,0.3292440714|H,0,2.7077207861,-5.1885963896,-0.985253
 7661|H,0,0.9377272275,-3.7421501128,-0.0154165496|H,0,-0.5236711643,3.
 0851098551,1.4648581801|H,0,-2.5726544359,4.0391731583,0.4429283053|H,
 0,-4.0179387248,2.6282944006,-1.0143986205|H,0,-3.3818765048,0.2599005
 726,-1.4627472762|H,0,-1.3142517609,-0.6810325222,-0.4601298974|H,0,1.
 6955418901,2.7448411962,0.1672381469|H,0,3.6665426895,2.8219233388,-1.
 3298290982|H,0,4.7282352669,0.7096562975,-2.114157647|H,0,3.7949474654
 ,-1.4854085557,-1.383853793|H,0,1.8433829364,-1.5565609449,0.142174545
 1||Version=EM64W-G09RevD.01|State=1-A|HF=-1540.7228706|RMSD=5.620e-009
 |PG=C01 [X(C40H28)]||@


 REFRAIN FROM ILLUSIONS, INSIST ON WORK AND NOT WORDS,
 PATIENTLY SEEK DIVINE AND SCIENTIFIC TRUTH.
 LAST WORDS OF MARIA MENDELEEVA TO HER SON DMITRI, C. 1850
 Job cpu time:       0 days  4 hours 36 minutes 29.0 seconds.
 File lengths (MBytes):  RWF=   7379 Int=      0 D2E=      0 Chk=   1007 Scr=      1
 Normal termination of Gaussian 09 at Mon May 20 04:51:53 2024.
