 Entering Link 1 = C:\G09W\l1.exe PID=       968.
  
 Copyright (c) 1988,1990,1992,1993,1995,1998,2003,2009,2013,
            Gaussian, Inc.  All Rights Reserved.
  
 This is part of the Gaussian(R) 09 program.  It is based on
 the Gaussian(R) 03 system (copyright 2003, Gaussian, Inc.),
 the Gaussian(R) 98 system (copyright 1998, Gaussian, Inc.),
 the Gaussian(R) 94 system (copyright 1995, Gaussian, Inc.),
 the Gaussian 92(TM) system (copyright 1992, Gaussian, Inc.),
 the Gaussian 90(TM) system (copyright 1990, Gaussian, Inc.),
 the Gaussian 88(TM) system (copyright 1988, Gaussian, Inc.),
 the Gaussian 86(TM) system (copyright 1986, Carnegie Mellon
 University), and the Gaussian 82(TM) system (copyright 1983,
 Carnegie Mellon University). Gaussian is a federally registered
 trademark of Gaussian, Inc.
  
 This software contains proprietary and confidential information,
 including trade secrets, belonging to Gaussian, Inc.
  
 This software is provided under written license and may be
 used, copied, transmitted, or stored only in accord with that
 written license.
  
 The following legend is applicable only to US Government
 contracts under FAR:
  
                    RESTRICTED RIGHTS LEGEND
  
 Use, reproduction and disclosure by the US Government is
 subject to restrictions as set forth in subparagraphs (a)
 and (c) of the Commercial Computer Software - Restricted
 Rights clause in FAR 52.227-19.
  
 Gaussian, Inc.
 340 Quinnipiac St., Bldg. 40, Wallingford CT 06492
  
  
 ---------------------------------------------------------------
 Warning -- This program may not be used in any manner that
 competes with the business of Gaussian, Inc. or will provide
 assistance to any competitor of Gaussian, Inc.  The licensee
 of this program is prohibited from giving any competitor of
 Gaussian, Inc. access to this program.  By using this program,
 the user acknowledges that Gaussian, Inc. is engaged in the
 business of creating and licensing software in the field of
 computational chemistry and represents and warrants to the
 licensee that it is not a competitor of Gaussian, Inc. and that
 it will not use this program in any manner prohibited above.
 ---------------------------------------------------------------
  

 Cite this work as:
 Gaussian 09, Revision D.01,
 M. J. Frisch, G. W. Trucks, H. B. Schlegel, G. E. Scuseria, 
 M. A. Robb, J. R. Cheeseman, G. Scalmani, V. Barone, B. Mennucci, 
 G. A. Petersson, H. Nakatsuji, M. Caricato, X. Li, H. P. Hratchian, 
 A. F. Izmaylov, J. Bloino, G. Zheng, J. L. Sonnenberg, M. Hada, 
 M. Ehara, K. Toyota, R. Fukuda, J. Hasegawa, M. Ishida, T. Nakajima, 
 Y. Honda, O. Kitao, H. Nakai, T. Vreven, J. A. Montgomery, Jr., 
 J. E. Peralta, F. Ogliaro, M. Bearpark, J. J. Heyd, E. Brothers, 
 K. N. Kudin, V. N. Staroverov, T. Keith, R. Kobayashi, J. Normand, 
 K. Raghavachari, A. Rendell, J. C. Burant, S. S. Iyengar, J. Tomasi, 
 M. Cossi, N. Rega, J. M. Millam, M. Klene, J. E. Knox, J. B. Cross, 
 V. Bakken, C. Adamo, J. Jaramillo, R. Gomperts, R. E. Stratmann, 
 O. Yazyev, A. J. Austin, R. Cammi, C. Pomelli, J. W. Ochterski, 
 R. L. Martin, K. Morokuma, V. G. Zakrzewski, G. A. Voth, 
 P. Salvador, J. J. Dannenberg, S. Dapprich, A. D. Daniels, 
 O. Farkas, J. B. Foresman, J. V. Ortiz, J. Cioslowski, 
 and D. J. Fox, Gaussian, Inc., Wallingford CT, 2013.
 
 ******************************************
 Gaussian 09:  EM64W-G09RevD.01 13-Apr-2013
                22-Jun-2024 
 ******************************************
 %nprocshared=15
 Will use up to   15 processors via shared memory.
 %mem=50GB
 %chk=D:\Yaroslav\pink-mystery\OS7\conf4_triplet\OS7_conf4_571kjm.chk
 ----------------------------------------------------------------------
 # td=(nstates=60) wb97xd/cc-pvdz scrf=(cpcm,solvent=n,n-DiMethylFormam
 ide) geom=AllCheck guess=read maxdisk=900GB integral(ultrafinegrid)
 ----------------------------------------------------------------------
 1/29=7,38=1/1;
 2/12=2,40=1/2;
 3/5=16,11=9,14=-4,16=1,25=1,30=1,70=2101,72=148,74=-58,75=-5,116=-2/1,2,8,3;
 4/5=1/1;
 5/5=2,38=6,53=148/2;
 8/6=1,10=1,108=60/1;
 9/41=60,42=1,70=2/14;
 6/7=2,8=2,9=2,10=2/1;
 99/5=1,9=1/99;
 Structure from the checkpoint file:  "D:\Yaroslav\pink-mystery\OS7\conf4_triplet\OS7_conf4_571kjm.chk"
 -----------------
 OS7_conf4_triplet
 -----------------
 Charge =  0 Multiplicity = 3
 Redundant internal coordinates found in file.
 O,0,5.9081696167,3.8850596053,-6.5315647748
 O,0,6.5893483561,3.0094156885,-5.8625836699
 C,0,5.8546543511,2.5517575847,-4.6325298331
 H,0,4.8694696182,2.2363123248,-4.997591529
 C,0,6.6599522442,1.4134578653,-4.0973203499
 C,0,6.3600470451,0.0954940074,-4.4352078961
 C,0,7.1557538108,-0.9491547703,-3.9690412334
 C,0,8.2630382265,-0.6643616482,-3.1646950374
 C,0,8.5784539539,0.6472251565,-2.8337824188
 C,0,7.7829584789,1.7164223992,-3.2951690766
 C,0,8.0509721974,3.1061699333,-2.9537469455
 C,0,9.4761673784,3.5429066668,-2.6107757128
 C,0,10.516824568,2.8780004759,-3.527702319
 C,0,11.7676226237,2.528713749,-3.0140702864
 C,0,12.747623688,1.9886306998,-3.847413989
 C,0,12.4916457035,1.7990050221,-5.2045534068
 C,0,11.2453735371,2.1532510281,-5.7228139392
 C,0,10.265410776,2.6893248438,-4.8906908165
 O,0,9.7862675542,3.1233718806,-1.2815697847
 C,0,9.7149497529,5.0555903493,-2.7823303153
 C,0,10.4236041379,5.7648397955,-1.812317994
 C,0,10.6858546435,7.1263777526,-1.9797670001
 C,0,10.2500661933,7.7899512495,-3.1240152506
 C,0,9.5529680981,7.0808410937,-4.1050438638
 C,0,9.2910004016,5.7248150749,-3.9369118958
 C,0,6.9009233598,3.9909377908,-2.8792482314
 C,0,5.7652277215,3.6947777683,-3.6730956632
 C,0,4.6233684453,4.4888449142,-3.6127634022
 C,0,4.5675514215,5.58190736,-2.7491910362
 C,0,5.6716802111,5.8787502119,-1.9467098344
 C,0,6.8218011203,5.1026795529,-2.0123519325
 H,0,5.4956543937,-0.1124316172,-5.0692801238
 H,0,6.9133654621,-1.9805291892,-4.2286992273
 H,0,8.8841274706,-1.4774904478,-2.7851177447
 H,0,9.4284908967,0.8561015765,-2.1862945961
 H,0,11.9707406406,2.6742333669,-1.9535449572
 H,0,13.7183826459,1.714446587,-3.429791237
 H,0,13.2578793983,1.3749430223,-5.8559793785
 H,0,11.0294931802,2.0052215571,-6.7824999676
 H,0,9.2876028322,2.9377878902,-5.3078978592
 H,0,9.0850880131,3.4392919147,-0.6980093061
 H,0,10.7671700392,5.2474843692,-0.9165987463
 H,0,11.2357644137,7.6679133271,-1.2076471561
 H,0,10.452418756,8.8544598157,-3.2546669374
 H,0,9.206756419,7.5892756588,-5.0067172117
 H,0,8.7314783358,5.1894447185,-4.7065258098
 H,0,3.770859727,4.2480402485,-4.2500394619
 H,0,3.6678062636,6.1965750525,-2.6996454703
 H,0,5.6349760664,6.7233523577,-1.2568745002
 H,0,7.6618958114,5.3563643649,-1.3675008702
 Recover connectivity data from disk.
                          Input orientation:                          
 ---------------------------------------------------------------------
 Center     Atomic      Atomic             Coordinates (Angstroms)
 Number     Number       Type             X           Y           Z
 ---------------------------------------------------------------------
      1          8           0        5.908170    3.885060   -6.531565
      2          8           0        6.589348    3.009416   -5.862584
      3          6           0        5.854654    2.551758   -4.632530
      4          1           0        4.869470    2.236312   -4.997592
      5          6           0        6.659952    1.413458   -4.097320
      6          6           0        6.360047    0.095494   -4.435208
      7          6           0        7.155754   -0.949155   -3.969041
      8          6           0        8.263038   -0.664362   -3.164695
      9          6           0        8.578454    0.647225   -2.833782
     10          6           0        7.782958    1.716422   -3.295169
     11          6           0        8.050972    3.106170   -2.953747
     12          6           0        9.476167    3.542907   -2.610776
     13          6           0       10.516825    2.878000   -3.527702
     14          6           0       11.767623    2.528714   -3.014070
     15          6           0       12.747624    1.988631   -3.847414
     16          6           0       12.491646    1.799005   -5.204553
     17          6           0       11.245374    2.153251   -5.722814
     18          6           0       10.265411    2.689325   -4.890691
     19          8           0        9.786268    3.123372   -1.281570
     20          6           0        9.714950    5.055590   -2.782330
     21          6           0       10.423604    5.764840   -1.812318
     22          6           0       10.685855    7.126378   -1.979767
     23          6           0       10.250066    7.789951   -3.124015
     24          6           0        9.552968    7.080841   -4.105044
     25          6           0        9.291000    5.724815   -3.936912
     26          6           0        6.900923    3.990938   -2.879248
     27          6           0        5.765228    3.694778   -3.673096
     28          6           0        4.623368    4.488845   -3.612763
     29          6           0        4.567551    5.581907   -2.749191
     30          6           0        5.671680    5.878750   -1.946710
     31          6           0        6.821801    5.102680   -2.012352
     32          1           0        5.495654   -0.112432   -5.069280
     33          1           0        6.913365   -1.980529   -4.228699
     34          1           0        8.884127   -1.477490   -2.785118
     35          1           0        9.428491    0.856102   -2.186295
     36          1           0       11.970741    2.674233   -1.953545
     37          1           0       13.718383    1.714447   -3.429791
     38          1           0       13.257879    1.374943   -5.855979
     39          1           0       11.029493    2.005222   -6.782500
     40          1           0        9.287603    2.937788   -5.307898
     41          1           0        9.085088    3.439292   -0.698009
     42          1           0       10.767170    5.247484   -0.916599
     43          1           0       11.235764    7.667913   -1.207647
     44          1           0       10.452419    8.854460   -3.254667
     45          1           0        9.206756    7.589276   -5.006717
     46          1           0        8.731478    5.189445   -4.706526
     47          1           0        3.770860    4.248040   -4.250039
     48          1           0        3.667806    6.196575   -2.699645
     49          1           0        5.634976    6.723352   -1.256875
     50          1           0        7.661896    5.356364   -1.367501
 ---------------------------------------------------------------------
                    Distance matrix (angstroms):
                    1          2          3          4          5
     1  O    0.000000
     2  O    1.295489   0.000000
     3  C    2.320968   1.504081   0.000000
     4  H    2.479988   2.074580   1.096980   0.000000
     5  C    3.549583   2.380803   1.493546   2.166427   0.000000
     6  C    4.354275   3.252833   2.515470   2.668558   1.393248
     7  C    5.611829   4.424545   3.793345   4.053666   2.417481
     8  C    6.130127   4.855562   4.277648   4.825943   2.785141
     9  C    5.593531   4.325520   3.779130   4.578628   2.421630
    10  C    4.323434   3.112580   2.490919   3.414227   1.412932
    11  C    4.242529   3.256845   2.819485   3.880195   2.471431
    12  C    5.312275   4.380935   4.264414   5.350303   3.830853
    13  C    5.592590   4.570997   4.802386   5.870686   4.164711
    14  C    6.967469   5.929555   6.130509   7.183618   5.339056
    15  C    7.588099   6.559517   6.960355   7.965524   6.119887
    16  C    7.032406   6.060958   6.703991   7.637515   5.948383
    17  C    5.669126   4.736151   5.514289   6.417554   4.920936
    18  C    4.807057   3.815818   4.420446   5.415979   3.905970
    19  O    6.571321   5.587394   5.197428   6.226604   4.541597
    20  C    5.469778   4.841919   4.959264   6.027801   4.932275
    21  C    6.796618   6.220814   6.257219   7.310601   6.190383
    22  C    7.351958   6.986201   7.162737   8.176206   7.302696
    23  C    6.761038   6.614691   7.002423   7.956382   7.382134
    24  C    5.420847   5.333713   5.870976   6.797151   6.363084
    25  C    4.643325   4.287252   4.728705   5.731023   5.053310
    26  C    3.786316   3.156066   2.497982   3.419487   2.860974
    27  C    2.868359   2.437776   1.494994   2.164207   2.486950
    28  C    3.245716   3.333988   2.511632   2.655601   3.720279
    29  C    4.356937   4.516480   3.792810   4.042210   4.855056
    30  C    5.005160   4.940573   4.279718   4.818586   5.053775
    31  C    4.768711   4.388630   3.782580   4.575950   4.240713
    32  H    4.276492   3.401680   2.723515   2.431840   2.151426
    33  H    6.381124   5.260619   4.671785   4.748732   3.405969
    34  H    7.186733   5.905009   5.368936   5.899563   3.876392
    35  H    6.359923   5.119824   4.650981   5.531098   3.409908
    36  H    7.692797   6.659753   6.678209   7.738607   5.864282
    37  H    8.679400   7.643203   7.999118   9.001867   7.096311
    38  H    7.795854   6.865920   7.595358   8.476096   6.828397
    39  H    5.461201   4.644302   5.630278   6.417569   5.162680
    40  H    3.716888   2.755610   3.519982   4.484223   3.270111
    41  H    6.657469   5.752073   5.167579   6.140440   4.641185
    42  H    7.549432   6.850249   6.723682   7.778466   6.456469
    43  H    8.428366   8.059728   8.176871   9.186712   8.270821
    44  H    7.488872   7.475900   7.922247   8.832156   8.394128
    45  H    5.189128   5.344011   6.062441   6.889583   6.741954
    46  H    3.606003   3.267678   3.903714   4.870403   4.349762
    47  H    3.147254   3.475395   2.714014   2.410981   4.050313
    48  H    5.004592   5.357011   4.669373   4.733733   5.812456
    49  H    5.996074   5.993055   5.370802   5.891731   6.108493
    50  H    5.648703   5.183078   4.668228   5.541654   4.899216
                    6          7          8          9         10
     6  C    0.000000
     7  C    1.393468   0.000000
     8  C    2.411008   1.397912   0.000000
     9  C    2.791111   2.421016   1.388975   0.000000
    10  C    2.439626   2.820069   2.432207   1.410274   0.000000
    11  C    3.757409   4.275266   3.782377   2.517745   1.455953
    12  C    4.992335   5.235248   4.413572   3.039834   2.582904
    13  C    5.083769   5.112601   4.214221   3.035649   2.979490
    14  C    6.097710   5.854645   4.743472   3.707196   4.076320
    15  C    6.688094   6.317783   5.255091   4.495419   5.002697
    16  C    6.410175   6.127856   5.301917   4.718074   5.081762
    17  C    5.455154   5.424540   4.835001   4.210354   4.251188
    18  C    4.710339   4.874212   4.270336   3.353635   3.107217
    19  O    5.554500   5.543246   4.495922   3.162195   3.169753
    20  C    6.212080   6.634360   5.913721   4.552796   3.891740
    21  C    7.452082   7.772260   6.916039   5.535156   5.055842
    22  C    8.612498   9.035101   8.244375   6.866578   6.278910
    23  C    8.721018   9.309179   8.684776   7.341462   6.557718
    24  C    7.687576   8.381287   7.907992   6.630022   5.706647
    25  C    6.366164   7.007295   6.517254   5.244667   4.330501
    26  C    4.229425   5.065284   4.858873   3.741202   2.474752
    27  C    3.726858   4.856671   5.049715   4.231580   2.850957
    28  C    4.795206   6.009305   6.324832   5.568443   4.215472
    29  C    6.013021   7.130329   7.269466   6.359684   5.057560
    30  C    6.333445   7.274104   7.142194   6.050214   4.858067
    31  C    5.581698   6.369055   6.055066   4.859182   3.746489
    32  H    1.091996   2.160223   3.404480   3.883063   3.424024
    33  H    2.158397   1.090829   2.164721   3.409312   3.910898
    34  H    3.401185   2.160576   1.091334   2.147143   3.416695
    35  H    3.879624   3.406240   2.151129   1.088776   2.162760
    36  H    6.654955   6.354153   5.134214   4.048603   4.500542
    37  H    7.601117   7.103074   5.957331   5.283281   5.936951
    38  H    7.157910   6.796904   6.029114   5.617853   6.053851
    39  H    5.564222   5.625811   5.279059   4.841913   4.773350
    40  H    4.172626   4.630944   4.314920   3.445405   2.794059
    41  H    5.707319   5.803486   4.858012   3.551597   3.377730
    42  H    7.638478   7.794746   6.802539   5.443203   5.199184
    43  H    9.567199   9.926009   9.060571   7.680864   7.190262
    44  H    9.739644  10.367699   9.767776   8.428973   7.620973
    45  H    8.036613   8.842408   8.509182   7.301265   6.280685
    46  H    5.625445   6.380376   6.071551   4.915521   3.866976
    47  H    4.897124   6.208648   6.744578   6.171273   4.839194
    48  H    6.890829   8.052242   8.270724   7.411325   6.112356
    49  H    7.386206   8.278646   8.069994   6.933255   5.817029
    50  H    6.227551   6.839866   6.311927   5.016578   4.120648
                   11         12         13         14         15
    11  C    0.000000
    12  C    1.529559   0.000000
    13  C    2.542030   1.538123   0.000000
    14  C    3.761726   2.538110   1.396537   0.000000
    15  C    4.909793   3.827202   2.422738   1.395189   0.000000
    16  C    5.147270   4.343039   2.806418   2.419690   1.394027
    17  C    4.333588   3.840054   2.423749   2.784063   2.408522
    18  C    2.971405   2.559203   1.398766   2.409178   2.782226
    19  O    2.409922   1.427922   2.374665   2.698322   4.079317
    20  C    2.568744   1.540993   2.437310   3.263782   4.442719
    21  C    3.741760   2.544044   3.359327   3.704471   4.878774
    22  C    4.904418   3.834420   4.524752   4.835134   5.842554
    23  C    5.177143   4.347381   4.935725   5.476832   6.357391
    24  C    4.402214   3.841317   4.350427   5.178492   6.016877
    25  C    3.059671   2.560009   3.126412   4.147331   5.090710
    26  C    1.452920   2.627678   3.838472   5.083408   6.255436
    27  C    2.467499   3.862986   4.823478   6.150021   7.189936
    28  C    3.754272   5.044644   6.110228   7.432423   8.503508
    29  C    4.278474   5.317066   6.581113   7.825163   9.001739
    30  C    3.789770   4.513454   5.914344   7.037224   8.295462
    31  C    2.526487   3.136345   4.571508   5.664794   6.941191
    32  H    4.622178   5.937190   6.044113   7.108947   7.648430
    33  H    5.366019   6.300315   6.089468   6.735904   7.066695
    34  H    4.661816   5.058191   4.710354   4.941319   5.298025
    35  H    2.747608   2.720548   2.659308   2.992387   3.880539
    36  H    4.068361   2.722029   2.152525   1.089563   2.158782
    37  H    5.855173   4.691529   3.407847   2.154372   1.091769
    38  H    6.207413   5.434405   3.897876   3.410059   2.161321
    39  H    4.974236   4.709626   3.408560   3.875557   3.401026
    40  H    2.664514   2.770594   2.164176   3.402864   3.873714
    41  H    2.503741   1.955084   3.220571   3.659137   5.043544
    42  H    4.014092   2.728096   3.534825   3.576591   4.809574
    43  H    5.831061   4.699003   5.370549   5.473336   6.442697
    44  H    6.237013   5.438774   5.983040   6.465502   7.263534
    45  H    5.064461   4.710225   5.108804   6.011486   6.726734
    46  H    2.806307   2.767276   3.149581   4.377450   5.206986
    47  H    4.615583   5.977870   6.921475   8.272359   9.265491
    48  H    5.369107   6.386463   7.655564   8.897140  10.073095
    49  H    4.669092   5.167498   6.616331   7.634925   8.928507
    50  H    2.780455   2.850604   4.354237   5.250123   6.584545
                   16         17         18         19         20
    16  C    0.000000
    17  C    1.395449   0.000000
    18  C    2.418119   1.392886   0.000000
    19  O    4.945990   4.774387   3.666569   0.000000
    20  C    4.917576   4.405929   3.216738   2.447619   0.000000
    21  C    5.613546   5.386173   4.354331   2.768618   1.395045
    22  C    6.483905   6.249436   5.323316   4.161826   2.423824
    23  C    6.726422   6.286237   5.397941   5.038519   2.807103
    24  C    6.143496   5.455507   4.517768   4.867032   2.424345
    25  C    5.221401   4.445795   3.327667   3.750152   1.400233
    26  C    6.439549   5.507922   4.130360   3.410346   3.010253
    27  C    7.154301   6.050591   4.769185   4.713243   4.271484
    28  C    8.466335   7.332003   6.058384   5.827050   5.189896
    29  C    9.117589   8.074121   6.739336   5.952588   5.174342
    30  C    8.588934   7.694437   6.319954   4.996434   4.209974
    31  C    7.297366   6.483413   5.095838   3.638648   2.994227
    32  H    7.253674   6.214475   5.534646   6.574689   7.052733
    33  H    6.808405   6.171451   5.786361   6.556595   7.710242
    34  H    5.440890   5.233338   4.868648   4.923662   6.585698
    35  H    4.402485   4.182180   3.372670   2.467194   4.251238
    36  H    3.406820   3.873625   3.396351   2.329206   3.383244
    37  H    2.159124   3.400923   3.873968   4.696962   5.254514
    38  H    1.091466   2.161869   3.407969   6.002859   5.962117
    39  H    2.161095   1.091536   2.151920   5.749444   5.199436
    40  H    3.401970   2.149539   1.091744   4.061333   3.323583
    41  H    5.882526   5.618665   4.419750   0.965402   2.711741
    42  H    5.766488   5.736084   4.752826   2.367958   2.150569
    43  H    7.210866   7.127294   6.268392   4.770677   3.408333
    44  H    7.598681   7.185174   6.381257   6.097724   3.898509
    45  H    6.660095   5.849711   5.014352   5.844386   3.409651
    46  H    5.087433   4.070747   2.938956   4.136612   2.165101
    47  H    9.108292   7.900985   6.709636   6.801604   6.175639
    48  H   10.172184   9.105358   7.786518   6.992216   6.154399
    49  H    9.319189   8.503352   7.135750   5.494879   4.664186
    50  H    7.120693   6.486139   5.128768   3.083277   2.511421
                   21         22         23         24         25
    21  C    0.000000
    22  C    1.396639   0.000000
    23  C    2.419037   1.392676   0.000000
    24  C    2.783246   2.408798   1.396854   0.000000
    25  C    2.407964   2.782160   2.417725   1.391295   0.000000
    26  C    4.085872   4.996574   5.070421   4.252460   3.136471
    27  C    5.426612   6.233443   6.098009   5.098920   4.076975
    28  C    6.205844   6.810066   6.541858   5.591220   4.839368
    29  C    5.933342   6.356968   6.107940   5.379546   4.872584
    30  C    4.755189   5.167167   5.099054   4.600850   4.133289
    31  C    3.667622   4.362032   4.495578   3.968848   3.191853
    32  H    8.332755   9.427812   9.425293   8.314729   7.054102
    33  H    8.840329  10.110644  10.383457   9.438815   8.069115
    34  H    7.467776   8.827308   9.373693   8.685309   7.305161
    35  H    5.022531   6.398436   7.045039   6.514942   5.175706
    36  H    3.459107   4.633919   5.522797   5.467427   4.518938
    37  H    5.466029   6.370855   7.002462   6.826773   5.995160
    38  H    6.607231   7.397252   7.593609   7.024914   6.191957
    39  H    6.261353   7.029265   6.888767   5.925438   4.995508
    40  H    4.637003   5.529543   5.407325   4.322287   3.105984
    41  H    2.905423   4.219000   5.115752   5.008760   3.969447
    42  H    1.089957   2.160366   3.406497   3.873198   3.395469
    43  H    2.155672   1.091710   2.158463   3.401671   3.873838
    44  H    3.409832   2.160123   1.091419   2.162840   3.407202
    45  H    3.874722   3.400652   2.161789   1.091505   2.151231
    46  H    3.401589   3.873824   3.401923   2.148024   1.091784
    47  H    7.245838   7.826629   7.469483   6.440385   5.722837
    48  H    6.827485   7.115881   6.785653   6.114916   5.776997
    49  H    4.915101   5.118240   5.091454   4.857008   4.641787
    50  H    2.826968   3.556985   3.963119   3.747548   3.064573
                   26         27         28         29         30
    26  C    0.000000
    27  C    1.416937   0.000000
    28  C    2.444016   1.392130   0.000000
    29  C    2.827141   2.418530   1.394151   0.000000
    30  C    2.438135   2.785479   2.409674   1.396851   0.000000
    31  C    1.411998   2.420042   2.787690   2.419552   1.389019
    32  H    4.858874   4.064092   4.904495   6.218495   6.758379
    33  H    6.122058   5.816874   6.890302   8.054951   8.277532
    34  H    5.817703   6.104785   7.378091   8.274613   8.070751
    35  H    4.086072   4.867048   6.190383   6.802854   6.276785
    36  H    5.319181   6.519721   7.747884   7.993424   7.067329
    37  H    7.208555   8.199609   9.510523   9.957820   9.180979
    38  H    7.491011   8.141649   9.448978  10.142607   9.649719
    39  H    6.018599   6.343145   7.566641   8.415281   8.191169
    40  H    3.564225   3.956354   5.199456   5.984750   5.746455
    41  H    3.135712   4.465186   5.431786   5.404284   4.377392
    42  H    4.514285   5.918496   6.752121   6.473446   5.236759
    43  H    5.924968   7.196597   7.721065   7.154917   5.891210
    44  H    6.033896   6.983349   7.291410   6.752538   5.781095
    45  H    4.773995   5.365611   5.706419   5.536079   4.978585
    46  H    2.850665   3.478599   4.308564   4.617735   4.177809
    47  H    3.426729   2.148597   1.091274   2.160200   3.402596
    48  H    3.917925   3.406724   2.159450   1.090785   2.164125
    49  H    3.420644   3.876513   3.400968   2.160856   1.091134
    50  H    2.174592   3.416722   3.876396   3.396307   2.137599
                   31         32         33         34         35
    31  C    0.000000
    32  H    6.188769   0.000000
    33  H    7.422427   2.491239   0.000000
    34  H    6.938948   4.308426   2.494169   0.000000
    35  H    4.985831   4.971606   4.306245   2.469934   0.000000
    36  H    5.693188   7.707143   7.240179   5.239800   3.134136
    37  H    7.813584   8.581298   7.784559   5.828730   4.548210
    38  H    8.372132   7.942501   7.359354   6.057745   5.329165
    39  H    7.074831   6.167897   6.273007   5.719348   5.000879
    40  H    4.650544   4.872335   5.567002   5.101166   3.754687
    41  H    3.101100   6.678831   6.823241   5.345199   3.000965
    42  H    4.097265   8.588500   8.835497   7.229281   4.763238
    43  H    5.168273  10.411284  10.995560   9.573767   7.115108
    44  H    5.366618  10.405166  11.439870  10.460842   8.134100
    45  H    4.564800   8.549414   9.871480   9.340548   7.303395
    46  H    3.303478   6.221900   7.412313   6.939967   5.061152
    47  H    3.878904   4.760230   6.976451   7.814935   6.911807
    48  H    3.408323   6.982819   8.929541   9.279472   7.872082
    49  H    2.146131   7.828269   9.285665   8.952449   7.048348
    50  H    1.089012   6.950072   7.910547   7.085553   4.903432
                   36         37         38         39         40
    36  H    0.000000
    37  H    2.480876   0.000000
    38  H    4.309742   2.492732   0.000000
    39  H    4.965111   4.307590   2.494273   0.000000
    40  H    4.303530   4.965446   4.301857   2.465424   0.000000
    41  H    3.238622   5.648464   6.948264   6.546625   4.641507
    42  H    3.024146   5.244821   6.752606   6.707449   5.177579
    43  H    5.102293   6.822396   8.080682   7.949063   6.556026
    44  H    6.495646   7.853469   8.401227   7.725975   6.370209
    45  H    6.412418   7.573314   7.466644   6.136565   4.661929
    46  H    4.939434   6.210868   6.029923   4.441826   2.396014
    47  H    8.659608  10.297821  10.041776   8.008205   5.768040
    48  H    9.049988  11.028902  11.188390   9.403807   7.000342
    49  H    7.551333   9.754597  10.385851   9.049536   6.639501
    50  H    5.109150   7.361905   8.204461   7.203686   4.900935
                   41         42         43         44         45
    41  H    0.000000
    42  H    2.479262   0.000000
    43  H    4.771413   2.482492   0.000000
    44  H    6.142486   4.309977   2.492351   0.000000
    45  H    5.983488   4.964670   4.307666   2.494403   0.000000
    46  H    4.388198   4.302436   4.965522   4.301380   2.464791
    47  H    6.442982   7.814031   8.756511   8.176374   6.425371
    48  H    6.399695   7.381124   7.852699   7.307761   6.159721
    49  H    4.795900   5.351018   5.680092   5.633875   5.250596
    50  H    2.479690   3.139729   4.259266   4.856448   4.540527
                   46         47         48         49         50
    46  H    0.000000
    47  H    5.069749   0.000000
    48  H    5.539193   2.492214   0.000000
    49  H    4.882755   4.308264   2.495764   0.000000
    50  H    3.510122   4.967653   4.293404   2.447304   0.000000
 Stoichiometry    C27H20O3(3)
 Framework group  C1[X(C27H20O3)]
 Deg. of freedom   144
 Full point group                 C1      NOp   1
 Largest Abelian subgroup         C1      NOp   1
 Largest concise Abelian subgroup C1      NOp   1
                         Standard orientation:                         
 ---------------------------------------------------------------------
 Center     Atomic      Atomic             Coordinates (Angstroms)
 Number     Number       Type             X           Y           Z
 ---------------------------------------------------------------------
      1          8           0       -2.510267   -1.143906    2.810123
      2          8           0       -2.229403   -0.183548    1.987250
      3          6           0       -2.850605   -0.406855    0.635769
      4          1           0       -3.913152   -0.583777    0.843271
      5          6           0       -2.616157    0.861954   -0.116453
      6          6           0       -3.575243    1.872161   -0.144345
      7          6           0       -3.316334    3.070430   -0.806816
      8          6           0       -2.082740    3.254859   -1.437998
      9          6           0       -1.114800    2.259277   -1.403973
     10          6           0       -1.360717    1.039698   -0.739875
     11          6           0       -0.393350   -0.047662   -0.699288
     12          6           0        1.099833    0.258860   -0.825765
     13          6           0        1.495348    1.521237   -0.041039
     14          6           0        2.489524    2.363812   -0.543030
     15          6           0        2.909389    3.475045    0.188699
     16          6           0        2.346415    3.752244    1.433501
     17          6           0        1.357653    2.908710    1.941515
     18          6           0        0.935647    1.801076    1.209949
     19          8           0        1.407979    0.524320   -2.194537
     20          6           0        2.006602   -0.851689   -0.260866
     21          6           0        3.136654   -1.258562   -0.970505
     22          6           0        3.990821   -2.231325   -0.446356
     23          6           0        3.728223   -2.799925    0.797542
     24          6           0        2.606062   -2.385172    1.518608
     25          6           0        1.754941   -1.417001    0.995216
     26          6           0       -0.932085   -1.394821   -0.622452
     27          6           0       -2.193516   -1.586336   -0.006153
     28          6           0       -2.771941   -2.850780    0.061891
     29          6           0       -2.128225   -3.953430   -0.497976
     30          6           0       -0.891821   -3.780365   -1.124511
     31          6           0       -0.298585   -2.525733   -1.182322
     32          1           0       -4.532392    1.717284    0.357985
     33          1           0       -4.072558    3.856120   -0.833739
     34          1           0       -1.876625    4.185367   -1.969676
     35          1           0       -0.166958    2.403475   -1.919952
     36          1           0        2.930798    2.151015   -1.516242
     37          1           0        3.683004    4.128063   -0.220012
     38          1           0        2.673853    4.622553    2.005030
     39          1           0        0.904415    3.116867    2.912441
     40          1           0        0.143595    1.165861    1.611272
     41          1           0        1.070969   -0.209433   -2.723718
     42          1           0        3.345307   -0.813957   -1.943540
     43          1           0        4.867045   -2.543245   -1.017991
     44          1           0        4.393803   -3.561907    1.206910
     45          1           0        2.389710   -2.822580    2.494952
     46          1           0        0.873967   -1.115658    1.565364
     47          1           0       -3.735504   -2.971431    0.559756
     48          1           0       -2.588988   -4.940912   -0.449093
     49          1           0       -0.384745   -4.633226   -1.578464
     50          1           0        0.662038   -2.423660   -1.685047
 ---------------------------------------------------------------------
 Rotational constants (GHZ):      0.1953735      0.1858351      0.1228723
 Standard basis: CC-pVDZ (5D, 7F)
 There are   550 symmetry adapted cartesian basis functions of A   symmetry.
 There are   520 symmetry adapted basis functions of A   symmetry.
   520 basis functions,  1130 primitive gaussians,   550 cartesian basis functions
   104 alpha electrons      102 beta electrons
       nuclear repulsion energy      2878.0463077425 Hartrees.
 NAtoms=   50 NActive=   50 NUniq=   50 SFac= 1.00D+00 NAtFMM=   60 NAOKFM=F Big=F
 Integral buffers will be    131072 words long.
 Raffenetti 2 integral format.
 Two-electron integral symmetry is turned on.
 Nuclear repulsion after empirical dispersion term =     2877.9976749195 Hartrees.
 ------------------------------------------------------------------------------
 Polarizable Continuum Model (PCM)
 =================================
 Model                : C-PCM.
 Atomic radii         : UFF (Universal Force Field).
 Polarization charges : Total charges.
 Charge compensation  : None.
 Solution method      : On-the-fly selection.
 Cavity type          : Scaled VdW (van der Waals Surface) (Alpha=1.100).
 Cavity algorithm     : GePol (No added spheres)
                        Default sphere list used, NSphG=   50.
                        Lebedev-Laikov grids with approx.  5.0 points / Ang**2.
                        Smoothing algorithm: Karplus/York (Gamma=1.0000).
                        Polarization charges: spherical gaussians, with
                                              point-specific exponents (IZeta= 3).
                        Self-potential: point-specific (ISelfS= 7).
                        Self-field    : sphere-specific E.n sum rule (ISelfD= 2).
 Solvent              : n,n-DiMethylFormamide, Eps=  37.219000 Eps(inf)=   2.046330
 ------------------------------------------------------------------------------
 One-electron integrals computed using PRISM.
 NBasis=   520 RedAO= T EigKep=  1.96D-04  NBF=   520
 NBsUse=   520 1.00D-06 EigRej= -1.00D+00 NBFU=   520
 Initial guess from the checkpoint file:  "D:\Yaroslav\pink-mystery\OS7\conf4_triplet\OS7_conf4_571kjm.chk"
 B after Tr=     0.000000    0.000000    0.000000
         Rot=    1.000000    0.000000    0.000000    0.000000 Ang=   0.00 deg.
 Initial guess <Sx>= 0.0000 <Sy>= 0.0000 <Sz>= 1.0000 <S**2>= 2.0456 S= 1.0151
 Requested convergence on RMS density matrix=1.00D-08 within 128 cycles.
 Requested convergence on MAX density matrix=1.00D-06.
 Requested convergence on             energy=1.00D-06.
 No special actions if energy rises.
 Inv3:  Mode=1 IEnd=    35873292.
 Iteration    1 A*A^-1 deviation from unit magnitude is 4.66D-15 for    361.
 Iteration    1 A*A^-1 deviation from orthogonality  is 5.34D-15 for   1571   1317.
 Iteration    1 A^-1*A deviation from unit magnitude is 4.66D-15 for   1819.
 Iteration    1 A^-1*A deviation from orthogonality  is 2.59D-15 for   2142   1881.
 Error on total polarization charges =  0.01346
 SCF Done:  E(UwB97XD) =  -1266.11976307     A.U. after    1 cycles
            NFock=  1  Conv=0.44D-09     -V/T= 2.0064
 <Sx>= 0.0000 <Sy>= 0.0000 <Sz>= 1.0000 <S**2>= 2.0456 S= 1.0151
 <L.S>= 0.000000000000E+00
 Annihilation of the first spin contaminant:
 S**2 before annihilation     2.0456,   after     2.0013
 DoSCS=F DFT=T ScalE2(SS,OS)=  1.000000  1.000000
 ExpMin= 1.22D-01 ExpMax= 1.17D+04 ExpMxC= 4.01D+02 IAcc=3 IRadAn=         5 AccDes= 0.00D+00
 HarFok:  IExCor=  205 AccDes= 0.00D+00 IRadAn=         5 IDoV=-2 UseB2=F ITyADJ=14
 ICtDFT= 12500011 ScaDFX=  1.000000  1.000000  1.000000  1.000000
 Range of M.O.s used for correlation:    31   520
 NBasis=   520 NAE=   104 NBE=   102 NFC=    30 NFV=     0
 NROrb=    490 NOA=    74 NOB=    72 NVA=   416 NVB=   418

 **** Warning!!: The largest alpha MO coefficient is  0.10334413D+02


 **** Warning!!: The largest beta MO coefficient is  0.10798134D+02

 Would need an additional         53032200000 words for in-memory AO integral storage.
 NEqPCM:  Using non-equilibrium solvation (IEInf=1, Eps=  37.2190, EpsInf=   2.0463)
 Inv3:  Mode=1 IEnd=    35873292.
 Iteration    1 A*A^-1 deviation from unit magnitude is 4.66D-15 for    361.
 Iteration    1 A*A^-1 deviation from orthogonality  is 5.34D-15 for   1571   1317.
 Iteration    1 A^-1*A deviation from unit magnitude is 4.66D-15 for   1819.
 Iteration    1 A^-1*A deviation from orthogonality  is 2.59D-15 for   2142   1881.
 Orbital symmetries:
 Alpha Orbitals:
       Occupied  (A) (A) (A) (A) (A) (A) (A) (A) (A) (A) (A) (A)
                 (A) (A) (A) (A) (A) (A) (A) (A) (A) (A) (A) (A)
                 (A) (A) (A) (A) (A) (A) (A) (A) (A) (A) (A) (A)
                 (A) (A) (A) (A) (A) (A) (A) (A) (A) (A) (A) (A)
                 (A) (A) (A) (A) (A) (A) (A) (A) (A) (A) (A) (A)
                 (A) (A) (A) (A) (A) (A) (A) (A) (A) (A) (A) (A)
                 (A) (A) (A) (A) (A) (A) (A) (A) (A) (A) (A) (A)
                 (A) (A) (A) (A) (A) (A) (A) (A) (A) (A) (A) (A)
                 (A) (A) (A) (A) (A) (A) (A) (A)
       Virtual   (A) (A) (A) (A) (A) (A) (A) (A) (A) (A) (A) (A)
                 (A) (A) (A) (A) (A) (A) (A) (A) (A) (A) (A) (A)
                 (A) (A) (A) (A) (A) (A) (A) (A) (A) (A) (A) (A)
                 (A) (A) (A) (A) (A) (A) (A) (A) (A) (A) (A) (A)
                 (A) (A) (A) (A) (A) (A) (A) (A) (A) (A) (A) (A)
                 (A) (A) (A) (A) (A) (A) (A) (A) (A) (A) (A) (A)
                 (A) (A) (A) (A) (A) (A) (A) (A) (A) (A) (A) (A)
                 (A) (A) (A) (A) (A) (A) (A) (A) (A) (A) (A) (A)
                 (A) (A) (A) (A) (A) (A) (A) (A) (A) (A) (A) (A)
                 (A) (A) (A) (A) (A) (A) (A) (A) (A) (A) (A) (A)
                 (A) (A) (A) (A) (A) (A) (A) (A) (A) (A) (A) (A)
                 (A) (A) (A) (A) (A) (A) (A) (A) (A) (A) (A) (A)
                 (A) (A) (A) (A) (A) (A) (A) (A) (A) (A) (A) (A)
                 (A) (A) (A) (A) (A) (A) (A) (A) (A) (A) (A) (A)
                 (A) (A) (A) (A) (A) (A) (A) (A) (A) (A) (A) (A)
                 (A) (A) (A) (A) (A) (A) (A) (A) (A) (A) (A) (A)
                 (A) (A) (A) (A) (A) (A) (A) (A) (A) (A) (A) (A)
                 (A) (A) (A) (A) (A) (A) (A) (A) (A) (A) (A) (A)
                 (A) (A) (A) (A) (A) (A) (A) (A) (A) (A) (A) (A)
                 (A) (A) (A) (A) (A) (A) (A) (A) (A) (A) (A) (A)
                 (A) (A) (A) (A) (A) (A) (A) (A) (A) (A) (A) (A)
                 (A) (A) (A) (A) (A) (A) (A) (A) (A) (A) (A) (A)
                 (A) (A) (A) (A) (A) (A) (A) (A) (A) (A) (A) (A)
                 (A) (A) (A) (A) (A) (A) (A) (A) (A) (A) (A) (A)
                 (A) (A) (A) (A) (A) (A) (A) (A) (A) (A) (A) (A)
                 (A) (A) (A) (A) (A) (A) (A) (A) (A) (A) (A) (A)
                 (A) (A) (A) (A) (A) (A) (A) (A) (A) (A) (A) (A)
                 (A) (A) (A) (A) (A) (A) (A) (A) (A) (A) (A) (A)
                 (A) (A) (A) (A) (A) (A) (A) (A) (A) (A) (A) (A)
                 (A) (A) (A) (A) (A) (A) (A) (A) (A) (A) (A) (A)
                 (A) (A) (A) (A) (A) (A) (A) (A) (A) (A) (A) (A)
                 (A) (A) (A) (A) (A) (A) (A) (A) (A) (A) (A) (A)
                 (A) (A) (A) (A) (A) (A) (A) (A) (A) (A) (A) (A)
                 (A) (A) (A) (A) (A) (A) (A) (A) (A) (A) (A) (A)
                 (A) (A) (A) (A) (A) (A) (A) (A)
 Beta  Orbitals:
       Occupied  (A) (A) (A) (A) (A) (A) (A) (A) (A) (A) (A) (A)
                 (A) (A) (A) (A) (A) (A) (A) (A) (A) (A) (A) (A)
                 (A) (A) (A) (A) (A) (A) (A) (A) (A) (A) (A) (A)
                 (A) (A) (A) (A) (A) (A) (A) (A) (A) (A) (A) (A)
                 (A) (A) (A) (A) (A) (A) (A) (A) (A) (A) (A) (A)
                 (A) (A) (A) (A) (A) (A) (A) (A) (A) (A) (A) (A)
                 (A) (A) (A) (A) (A) (A) (A) (A) (A) (A) (A) (A)
                 (A) (A) (A) (A) (A) (A) (A) (A) (A) (A) (A) (A)
                 (A) (A) (A) (A) (A) (A)
       Virtual   (A) (A) (A) (A) (A) (A) (A) (A) (A) (A) (A) (A)
                 (A) (A) (A) (A) (A) (A) (A) (A) (A) (A) (A) (A)
                 (A) (A) (A) (A) (A) (A) (A) (A) (A) (A) (A) (A)
                 (A) (A) (A) (A) (A) (A) (A) (A) (A) (A) (A) (A)
                 (A) (A) (A) (A) (A) (A) (A) (A) (A) (A) (A) (A)
                 (A) (A) (A) (A) (A) (A) (A) (A) (A) (A) (A) (A)
                 (A) (A) (A) (A) (A) (A) (A) (A) (A) (A) (A) (A)
                 (A) (A) (A) (A) (A) (A) (A) (A) (A) (A) (A) (A)
                 (A) (A) (A) (A) (A) (A) (A) (A) (A) (A) (A) (A)
                 (A) (A) (A) (A) (A) (A) (A) (A) (A) (A) (A) (A)
                 (A) (A) (A) (A) (A) (A) (A) (A) (A) (A) (A) (A)
                 (A) (A) (A) (A) (A) (A) (A) (A) (A) (A) (A) (A)
                 (A) (A) (A) (A) (A) (A) (A) (A) (A) (A) (A) (A)
                 (A) (A) (A) (A) (A) (A) (A) (A) (A) (A) (A) (A)
                 (A) (A) (A) (A) (A) (A) (A) (A) (A) (A) (A) (A)
                 (A) (A) (A) (A) (A) (A) (A) (A) (A) (A) (A) (A)
                 (A) (A) (A) (A) (A) (A) (A) (A) (A) (A) (A) (A)
                 (A) (A) (A) (A) (A) (A) (A) (A) (A) (A) (A) (A)
                 (A) (A) (A) (A) (A) (A) (A) (A) (A) (A) (A) (A)
                 (A) (A) (A) (A) (A) (A) (A) (A) (A) (A) (A) (A)
                 (A) (A) (A) (A) (A) (A) (A) (A) (A) (A) (A) (A)
                 (A) (A) (A) (A) (A) (A) (A) (A) (A) (A) (A) (A)
                 (A) (A) (A) (A) (A) (A) (A) (A) (A) (A) (A) (A)
                 (A) (A) (A) (A) (A) (A) (A) (A) (A) (A) (A) (A)
                 (A) (A) (A) (A) (A) (A) (A) (A) (A) (A) (A) (A)
                 (A) (A) (A) (A) (A) (A) (A) (A) (A) (A) (A) (A)
                 (A) (A) (A) (A) (A) (A) (A) (A) (A) (A) (A) (A)
                 (A) (A) (A) (A) (A) (A) (A) (A) (A) (A) (A) (A)
                 (A) (A) (A) (A) (A) (A) (A) (A) (A) (A) (A) (A)
                 (A) (A) (A) (A) (A) (A) (A) (A) (A) (A) (A) (A)
                 (A) (A) (A) (A) (A) (A) (A) (A) (A) (A) (A) (A)
                 (A) (A) (A) (A) (A) (A) (A) (A) (A) (A) (A) (A)
                 (A) (A) (A) (A) (A) (A) (A) (A) (A) (A) (A) (A)
                 (A) (A) (A) (A) (A) (A) (A) (A) (A) (A) (A) (A)
                 (A) (A) (A) (A) (A) (A) (A) (A) (A) (A)
   240 initial guesses have been made.
 Convergence on wavefunction:    0.001000000000000
 Iteration     1 Dimension   240 NMult     0 NNew    240
 CISAX will form   240 AO SS matrices at one time.
 New state      1 was old state     12
 New state      2 was old state      1
 New state      3 was old state      4
 New state      4 was old state      5
 New state      5 was old state     13
 New state      6 was old state      7
 New state      7 was old state      8
 New state      8 was old state     31
 New state     10 was old state     87
 New state     11 was old state     10
 New state     12 was old state     21
 New state     13 was old state     16
 New state     14 was old state      3
 New state     15 was old state      6
 New state     16 was old state     20
 New state     17 was old state     34
 New state     18 was old state     35
 New state     19 was old state     66
 New state     20 was old state     11
 New state     21 was old state     39
 New state     22 was old state     63
 New state     23 was old state     88
 New state     24 was old state     14
 New state     25 was old state     22
 New state     26 was old state     47
 New state     28 was old state     68
 New state     29 was old state     17
 New state     30 was old state     28
 New state     31 was old state     19
 New state     32 was old state     36
 New state     33 was old state     64
 New state     34 was old state     23
 New state     35 was old state     40
 New state     36 was old state     15
 New state     37 was old state     18
 New state     38 was old state     48
 New state     39 was old state     97
 New state     40 was old state     92
 New state     41 was old state     24
 New state     42 was old state     98
 New state     43 was old state     25
 New state     44 was old state     26
 New state     45 was old state     81
 New state     46 was old state     75
 New state     47 was old state     30
 New state     48 was old state     29
 New state     49 was old state     33
 New state     50 was old state     79
 New state     51 was old state     89
 New state     52 was old state     41
 New state     53 was old state     37
 New state     54 was old state     43
 New state     55 was old state    141
 New state     56 was old state     55
 New state     57 was old state     32
 New state     58 was old state     52
 New state     59 was old state     95
 New state     60 was old state    117
 Iteration     2 Dimension   360 NMult   240 NNew    120
 New state      4 was old state      5
 New state      5 was old state      4
 New state      6 was old state      8
 New state      7 was old state     10
 New state      8 was old state      6
 New state      9 was old state      7
 New state     10 was old state      9
 New state     11 was old state     12
 New state     12 was old state     13
 New state     13 was old state     11
 New state     14 was old state     16
 New state     15 was old state     14
 New state     16 was old state     15
 New state     19 was old state     21
 New state     20 was old state     19
 New state     21 was old state     22
 New state     22 was old state     20
 New state     25 was old state     26
 New state     26 was old state     25
 New state     29 was old state     31
 New state     31 was old state     29
 New state     32 was old state     35
 New state     33 was old state     32
 New state     34 was old state     33
 New state     35 was old state     34
 New state     37 was old state     39
 New state     39 was old state     47
 New state     40 was old state     37
 New state     41 was old state     44
 New state     42 was old state     41
 New state     43 was old state     46
 New state     44 was old state     40
 New state     45 was old state     42
 New state     46 was old state     45
 New state     47 was old state     43
 New state     48 was old state     53
 New state     49 was old state     48
 New state     50 was old state     49
 New state     51 was old state     50
 New state     52 was old state     51
 New state     53 was old state     52
 New state     54 was old state     60
 New state     55 was old state     54
 New state     56 was old state     55
 New state     60 was old state     56
 Iteration     3 Dimension   480 NMult   360 NNew    120
 New state     37 was old state     38
 New state     38 was old state     37
 New state     42 was old state     43
 New state     43 was old state     42
 New state     54 was old state     58
 New state     55 was old state     54
 New state     56 was old state     55
 New state     57 was old state     56
 New state     58 was old state     57
 Iteration     4 Dimension   600 NMult   480 NNew    120
 New state     51 was old state     52
 New state     52 was old state     51
 New state     53 was old state     54
 New state     54 was old state     53
 Iteration     5 Dimension   706 NMult   600 NNew    106
 Iteration     6 Dimension   750 NMult   706 NNew     44
 Iteration     7 Dimension   762 NMult   750 NNew     12
 Iteration     8 Dimension   764 NMult   762 NNew      2
 Iteration     9 Dimension   766 NMult   764 NNew      2
 Iteration    10 Dimension   768 NMult   766 NNew      2
 ***********************************************************************
 Excited states from <AA,BB:AA,BB> singles matrix:
 ***********************************************************************
 
 ExtSpn:  IState=     1 X2= 1.002 Y2= 0.002 X2-Y2-1= 2.66D-15
          S2Grnd=  2.046 Ra=  0.000 Rb=  0.000 T= -0.001 S2Ext= -0.001 S2=  2.044
 ExtSpn:  IState=     2 X2= 1.025 Y2= 0.025 X2-Y2-1=-2.33D-15
          S2Grnd=  2.046 Ra=  0.060 Rb=  0.105 T=  0.149 S2Ext=  0.314 S2=  2.360
 ExtSpn:  IState=     3 X2= 1.005 Y2= 0.005 X2-Y2-1=-9.99D-16
          S2Grnd=  2.046 Ra=  0.034 Rb=  0.101 T=  0.065 S2Ext=  0.200 S2=  2.246
 ExtSpn:  IState=     4 X2= 1.027 Y2= 0.027 X2-Y2-1=-1.11D-16
          S2Grnd=  2.046 Ra=  0.162 Rb=  0.190 T=  0.333 S2Ext=  0.685 S2=  2.731
 ExtSpn:  IState=     5 X2= 1.008 Y2= 0.008 X2-Y2-1=-3.66D-15
          S2Grnd=  2.046 Ra=  0.093 Rb=  0.109 T=  0.114 S2Ext=  0.316 S2=  2.361
 ExtSpn:  IState=     6 X2= 1.055 Y2= 0.055 X2-Y2-1=-1.89D-15
          S2Grnd=  2.046 Ra=  0.496 Rb=  0.493 T=  0.988 S2Ext=  1.976 S2=  4.022
 ExtSpn:  IState=     7 X2= 1.055 Y2= 0.055 X2-Y2-1=-1.33D-15
          S2Grnd=  2.046 Ra=  0.499 Rb=  0.498 T=  0.997 S2Ext=  1.993 S2=  4.039
 ExtSpn:  IState=     8 X2= 1.013 Y2= 0.013 X2-Y2-1=-7.77D-16
          S2Grnd=  2.046 Ra=  0.139 Rb=  0.095 T=  0.202 S2Ext=  0.436 S2=  2.481
 ExtSpn:  IState=     9 X2= 1.008 Y2= 0.008 X2-Y2-1= 6.66D-16
          S2Grnd=  2.046 Ra=  0.102 Rb=  0.081 T=  0.173 S2Ext=  0.356 S2=  2.402
 ExtSpn:  IState=    10 X2= 1.008 Y2= 0.008 X2-Y2-1=-2.33D-15
          S2Grnd=  2.046 Ra=  0.119 Rb=  0.097 T=  0.183 S2Ext=  0.400 S2=  2.445
 ExtSpn:  IState=    11 X2= 1.009 Y2= 0.009 X2-Y2-1=-2.33D-15
          S2Grnd=  2.046 Ra=  0.144 Rb=  0.120 T=  0.224 S2Ext=  0.488 S2=  2.534
 ExtSpn:  IState=    12 X2= 1.007 Y2= 0.007 X2-Y2-1= 1.33D-15
          S2Grnd=  2.046 Ra=  0.254 Rb=  0.180 T=  0.392 S2Ext=  0.826 S2=  2.871
 ExtSpn:  IState=    13 X2= 1.002 Y2= 0.002 X2-Y2-1=-2.22D-16
          S2Grnd=  2.046 Ra=  0.055 Rb=  0.103 T=  0.135 S2Ext=  0.293 S2=  2.338
 ExtSpn:  IState=    14 X2= 1.007 Y2= 0.007 X2-Y2-1=-2.78D-15
          S2Grnd=  2.046 Ra=  0.170 Rb=  0.185 T=  0.320 S2Ext=  0.675 S2=  2.721
 ExtSpn:  IState=    15 X2= 1.002 Y2= 0.002 X2-Y2-1= 1.11D-15
          S2Grnd=  2.046 Ra=  0.076 Rb=  0.059 T=  0.087 S2Ext=  0.222 S2=  2.267
 ExtSpn:  IState=    16 X2= 1.004 Y2= 0.004 X2-Y2-1=-1.11D-16
          S2Grnd=  2.046 Ra=  0.149 Rb=  0.157 T=  0.272 S2Ext=  0.578 S2=  2.624
 ExtSpn:  IState=    17 X2= 1.001 Y2= 0.001 X2-Y2-1= 0.00D+00
          S2Grnd=  2.046 Ra=  0.091 Rb=  0.122 T=  0.186 S2Ext=  0.399 S2=  2.444
 ExtSpn:  IState=    18 X2= 1.003 Y2= 0.003 X2-Y2-1= 1.55D-15
          S2Grnd=  2.046 Ra=  0.429 Rb=  0.433 T=  0.857 S2Ext=  1.720 S2=  3.765
 ExtSpn:  IState=    19 X2= 1.004 Y2= 0.004 X2-Y2-1= 4.44D-16
          S2Grnd=  2.046 Ra=  0.162 Rb=  0.167 T=  0.298 S2Ext=  0.628 S2=  2.673
 ExtSpn:  IState=    20 X2= 1.004 Y2= 0.004 X2-Y2-1=-1.11D-15
          S2Grnd=  2.046 Ra=  0.494 Rb=  0.488 T=  0.981 S2Ext=  1.963 S2=  4.008
 ExtSpn:  IState=    21 X2= 1.003 Y2= 0.003 X2-Y2-1=-5.55D-16
          S2Grnd=  2.046 Ra=  0.334 Rb=  0.359 T=  0.681 S2Ext=  1.374 S2=  3.420
 ExtSpn:  IState=    22 X2= 1.002 Y2= 0.002 X2-Y2-1= 0.00D+00
          S2Grnd=  2.046 Ra=  0.190 Rb=  0.192 T=  0.351 S2Ext=  0.733 S2=  2.779
 ExtSpn:  IState=    23 X2= 1.004 Y2= 0.004 X2-Y2-1= 2.22D-15
          S2Grnd=  2.046 Ra=  0.493 Rb=  0.485 T=  0.976 S2Ext=  1.953 S2=  3.999
 ExtSpn:  IState=    24 X2= 1.002 Y2= 0.002 X2-Y2-1= 1.78D-15
          S2Grnd=  2.046 Ra=  0.026 Rb=  0.049 T=  0.033 S2Ext=  0.108 S2=  2.154
 ExtSpn:  IState=    25 X2= 1.001 Y2= 0.001 X2-Y2-1=-1.11D-16
          S2Grnd=  2.046 Ra=  0.123 Rb=  0.087 T=  0.181 S2Ext=  0.391 S2=  2.437
 ExtSpn:  IState=    26 X2= 1.001 Y2= 0.001 X2-Y2-1= 6.66D-16
          S2Grnd=  2.046 Ra=  0.023 Rb=  0.034 T=  0.036 S2Ext=  0.093 S2=  2.138
 ExtSpn:  IState=    27 X2= 1.005 Y2= 0.005 X2-Y2-1= 4.44D-16
          S2Grnd=  2.046 Ra=  0.438 Rb=  0.417 T=  0.850 S2Ext=  1.706 S2=  3.752
 ExtSpn:  IState=    28 X2= 1.006 Y2= 0.006 X2-Y2-1=-1.33D-15
          S2Grnd=  2.046 Ra=  0.491 Rb=  0.485 T=  0.974 S2Ext=  1.949 S2=  3.995
 ExtSpn:  IState=    29 X2= 1.003 Y2= 0.003 X2-Y2-1=-1.33D-15
          S2Grnd=  2.046 Ra=  0.058 Rb=  0.104 T=  0.079 S2Ext=  0.241 S2=  2.286
 ExtSpn:  IState=    30 X2= 1.003 Y2= 0.003 X2-Y2-1=-3.33D-16
          S2Grnd=  2.046 Ra=  0.372 Rb=  0.511 T= -0.561 S2Ext=  0.321 S2=  2.367
 ExtSpn:  IState=    31 X2= 1.003 Y2= 0.003 X2-Y2-1= 8.88D-16
          S2Grnd=  2.046 Ra=  0.253 Rb=  0.463 T= -0.212 S2Ext=  0.504 S2=  2.550
 ExtSpn:  IState=    32 X2= 1.002 Y2= 0.002 X2-Y2-1= 8.88D-16
          S2Grnd=  2.046 Ra=  0.134 Rb=  0.191 T=  0.214 S2Ext=  0.539 S2=  2.585
 ExtSpn:  IState=    33 X2= 1.002 Y2= 0.002 X2-Y2-1= 2.44D-15
          S2Grnd=  2.046 Ra=  0.143 Rb=  0.222 T=  0.106 S2Ext=  0.470 S2=  2.516
 ExtSpn:  IState=    34 X2= 1.003 Y2= 0.003 X2-Y2-1=-1.11D-15
          S2Grnd=  2.046 Ra=  0.324 Rb=  0.348 T= -0.506 S2Ext=  0.167 S2=  2.212
 ExtSpn:  IState=    35 X2= 1.002 Y2= 0.002 X2-Y2-1= 2.22D-15
          S2Grnd=  2.046 Ra=  0.209 Rb=  0.283 T= -0.312 S2Ext=  0.180 S2=  2.226
 ExtSpn:  IState=    36 X2= 1.001 Y2= 0.001 X2-Y2-1=-5.55D-16
          S2Grnd=  2.046 Ra=  0.091 Rb=  0.040 T= -0.016 S2Ext=  0.114 S2=  2.160
 ExtSpn:  IState=    37 X2= 1.004 Y2= 0.004 X2-Y2-1= 2.00D-15
          S2Grnd=  2.046 Ra=  0.186 Rb=  0.175 T=  0.165 S2Ext=  0.527 S2=  2.572
 ExtSpn:  IState=    38 X2= 1.003 Y2= 0.003 X2-Y2-1=-1.22D-15
          S2Grnd=  2.046 Ra=  0.201 Rb=  0.230 T=  0.308 S2Ext=  0.738 S2=  2.784
 ExtSpn:  IState=    39 X2= 1.006 Y2= 0.006 X2-Y2-1=-3.00D-15
          S2Grnd=  2.046 Ra=  0.484 Rb=  0.486 T= -0.948 S2Ext=  0.022 S2=  2.068
 ExtSpn:  IState=    40 X2= 1.000 Y2= 0.000 X2-Y2-1=-8.88D-16
          S2Grnd=  2.046 Ra=  0.011 Rb=  0.029 T=  0.002 S2Ext=  0.043 S2=  2.088
 ExtSpn:  IState=    41 X2= 1.005 Y2= 0.005 X2-Y2-1=-8.88D-16
          S2Grnd=  2.046 Ra=  0.354 Rb=  0.370 T=  0.575 S2Ext=  1.299 S2=  3.345
 ExtSpn:  IState=    42 X2= 1.003 Y2= 0.003 X2-Y2-1= 2.89D-15
          S2Grnd=  2.046 Ra=  0.067 Rb=  0.056 T=  0.059 S2Ext=  0.182 S2=  2.227
 ExtSpn:  IState=    43 X2= 1.003 Y2= 0.003 X2-Y2-1= 8.88D-16
          S2Grnd=  2.046 Ra=  0.503 Rb=  0.164 T=  0.526 S2Ext=  1.193 S2=  3.239
 ExtSpn:  IState=    44 X2= 1.001 Y2= 0.001 X2-Y2-1= 6.66D-16
          S2Grnd=  2.046 Ra=  0.201 Rb=  0.073 T=  0.040 S2Ext=  0.314 S2=  2.359
 ExtSpn:  IState=    45 X2= 1.003 Y2= 0.003 X2-Y2-1= 6.66D-16
          S2Grnd=  2.046 Ra=  0.406 Rb=  0.205 T=  0.485 S2Ext=  1.096 S2=  3.142
 ExtSpn:  IState=    46 X2= 1.004 Y2= 0.004 X2-Y2-1=-3.55D-15
          S2Grnd=  2.046 Ra=  0.303 Rb=  0.278 T=  0.050 S2Ext=  0.631 S2=  2.676
 ExtSpn:  IState=    47 X2= 1.003 Y2= 0.003 X2-Y2-1= 2.22D-16
          S2Grnd=  2.046 Ra=  0.155 Rb=  0.183 T= -0.056 S2Ext=  0.282 S2=  2.328
 ExtSpn:  IState=    48 X2= 1.000 Y2= 0.000 X2-Y2-1= 6.66D-16
          S2Grnd=  2.046 Ra=  0.014 Rb=  0.031 T= -0.007 S2Ext=  0.038 S2=  2.084
 ExtSpn:  IState=    49 X2= 1.001 Y2= 0.001 X2-Y2-1=-2.22D-16
          S2Grnd=  2.046 Ra=  0.065 Rb=  0.032 T=  0.008 S2Ext=  0.105 S2=  2.150
 ExtSpn:  IState=    50 X2= 1.001 Y2= 0.001 X2-Y2-1=-2.33D-15
          S2Grnd=  2.046 Ra=  0.030 Rb=  0.033 T=  0.001 S2Ext=  0.064 S2=  2.109
 ExtSpn:  IState=    51 X2= 1.001 Y2= 0.001 X2-Y2-1= 4.44D-16
          S2Grnd=  2.046 Ra=  0.158 Rb=  0.245 T= -0.230 S2Ext=  0.173 S2=  2.219
 ExtSpn:  IState=    52 X2= 1.001 Y2= 0.001 X2-Y2-1= 2.22D-16
          S2Grnd=  2.046 Ra=  0.149 Rb=  0.137 T= -0.157 S2Ext=  0.129 S2=  2.174
 ExtSpn:  IState=    53 X2= 1.002 Y2= 0.002 X2-Y2-1=-1.22D-15
          S2Grnd=  2.046 Ra=  0.185 Rb=  0.288 T= -0.278 S2Ext=  0.195 S2=  2.241
 ExtSpn:  IState=    54 X2= 1.006 Y2= 0.006 X2-Y2-1= 1.11D-15
          S2Grnd=  2.046 Ra=  0.412 Rb=  0.462 T= -0.788 S2Ext=  0.085 S2=  2.131
 ExtSpn:  IState=    55 X2= 1.007 Y2= 0.007 X2-Y2-1= 2.22D-16
          S2Grnd=  2.046 Ra=  0.472 Rb=  0.465 T= -0.872 S2Ext=  0.065 S2=  2.110
 ExtSpn:  IState=    56 X2= 1.005 Y2= 0.005 X2-Y2-1=-1.55D-15
          S2Grnd=  2.046 Ra=  0.391 Rb=  0.496 T= -0.713 S2Ext=  0.174 S2=  2.220
 ExtSpn:  IState=    57 X2= 1.002 Y2= 0.002 X2-Y2-1=-2.22D-16
          S2Grnd=  2.046 Ra=  0.064 Rb=  0.179 T= -0.055 S2Ext=  0.189 S2=  2.235
 ExtSpn:  IState=    58 X2= 1.004 Y2= 0.004 X2-Y2-1=-2.22D-16
          S2Grnd=  2.046 Ra=  0.381 Rb=  0.507 T=  0.275 S2Ext=  1.162 S2=  3.208
 ExtSpn:  IState=    59 X2= 1.010 Y2= 0.010 X2-Y2-1= 1.11D-15
          S2Grnd=  2.046 Ra=  0.450 Rb=  0.459 T= -0.581 S2Ext=  0.328 S2=  2.374
 ExtSpn:  IState=    60 X2= 1.012 Y2= 0.012 X2-Y2-1=-4.44D-16
          S2Grnd=  2.046 Ra=  0.487 Rb=  0.488 T= -0.954 S2Ext=  0.021 S2=  2.067
 Ground to excited state transition densities written to RWF  633
 Ground to excited state transition electric dipole moments (Au):
       state          X           Y           Z        Dip. S.      Osc.
         1        -0.0102     -0.0161     -0.0016      0.0004      0.0000
         2         0.1346     -0.7654      0.0314      0.6049      0.0427
         3         0.0863     -0.3860     -0.0004      0.1564      0.0134
         4        -0.1895     -0.0839      0.0803      0.0494      0.0043
         5        -0.1912      0.0530     -0.0849      0.0466      0.0041
         6         0.0293     -0.0562      0.0134      0.0042      0.0004
         7        -0.0331      0.0236      0.0044      0.0017      0.0002
         8         0.0240     -0.8550      0.0926      0.7402      0.0709
         9        -0.5348      0.0364      0.4318      0.4738      0.0456
        10        -0.4365      0.7414     -0.0045      0.7402      0.0754
        11         0.0440      0.9748     -0.0401      0.9538      0.0976
        12         0.1024     -0.4305      0.0074      0.1959      0.0206
        13        -0.1538      0.5072     -0.0600      0.2846      0.0304
        14         0.3404      0.4627     -0.2770      0.4067      0.0443
        15        -0.1306      0.4107      0.0264      0.1865      0.0208
        16         0.2223     -0.4349     -0.0951      0.2476      0.0279
        17        -0.1201      0.4523      0.0722      0.2242      0.0255
        18        -0.0295      0.1571      0.0253      0.0262      0.0030
        19        -0.1297      0.1747      0.0827      0.0542      0.0062
        20         0.0068     -0.0341     -0.0091      0.0013      0.0001
        21        -0.2062     -0.0007     -0.0366      0.0439      0.0052
        22        -0.4185     -0.0826     -0.0659      0.1863      0.0219
        23         0.0964      0.0252      0.0206      0.0104      0.0012
        24        -0.6400     -0.2914     -0.0313      0.4955      0.0593
        25        -0.1091     -0.1186     -0.0260      0.0267      0.0033
        26        -0.0404     -0.0403      0.0583      0.0067      0.0008
        27        -0.0334     -0.0047     -0.0014      0.0011      0.0001
        28         0.0026     -0.0304      0.0152      0.0012      0.0001
        29        -0.6669     -0.1046     -0.0528      0.4585      0.0583
        30         0.0880     -0.3828     -0.0197      0.1547      0.0200
        31         0.0330     -0.3401     -0.0032      0.1168      0.0152
        32         0.0114     -0.0394     -0.0799      0.0081      0.0011
        33         0.0974     -0.3284      0.1940      0.1550      0.0206
        34         0.0155     -0.0958     -0.2381      0.0661      0.0088
        35         0.0316     -0.0953      0.2410      0.0681      0.0091
        36        -0.1483      0.2477      0.0152      0.0835      0.0113
        37         0.3544      0.0724     -0.3328      0.2416      0.0328
        38         0.1031      0.0776      0.0965      0.0260      0.0035
        39         0.1261     -1.1857     -0.0902      1.4300      0.1978
        40        -0.0201      0.0819      0.0776      0.0131      0.0018
        41         0.0862     -0.4859     -0.0629      0.2475      0.0347
        42         0.1663      0.1813     -0.2276      0.1123      0.0159
        43         0.0647     -0.2177      0.2189      0.0995      0.0142
        44        -0.3085      0.2008     -0.1330      0.1532      0.0219
        45         0.3264      0.2076     -0.1945      0.1875      0.0270
        46         0.2257     -0.9123      0.0713      0.8883      0.1283
        47        -0.0970     -0.7587     -0.1224      0.6000      0.0869
        48         0.0555      0.1091     -0.0240      0.0156      0.0023
        49         0.0501     -0.0959     -0.0131      0.0119      0.0017
        50         0.0804      0.0004      0.0554      0.0095      0.0014
        51         0.1078      0.0068      0.0036      0.0117      0.0018
        52        -0.2107      0.4055     -0.0520      0.2115      0.0319
        53        -0.4901      0.7601     -0.1037      0.8287      0.1253
        54         0.2273     -0.5218      0.2907      0.4084      0.0619
        55         0.0423     -0.9408      0.0857      0.8942      0.1367
        56         0.6717      0.1884      0.2740      0.5618      0.0866
        57        -0.1844      0.1848     -0.0989      0.0779      0.0122
        58        -0.1606      0.5950      0.0350      0.3810      0.0599
        59         0.0560      1.0389      0.2797      1.1607      0.1830
        60        -0.3538      1.9053      0.1621      3.7817      0.6041
 Ground to excited state transition velocity dipole moments (Au):
       state          X           Y           Z        Dip. S.      Osc.
         1         0.0026      0.0001     -0.0004      0.0000      0.0001
         2        -0.0145      0.0804     -0.0039      0.0067      0.0421
         3        -0.0120      0.0513     -0.0003      0.0028      0.0145
         4         0.0226      0.0099     -0.0081      0.0007      0.0035
         5         0.0248     -0.0075      0.0094      0.0008      0.0039
         6        -0.0038      0.0075     -0.0017      0.0001      0.0004
         7         0.0045     -0.0034     -0.0006      0.0000      0.0002
         8        -0.0033      0.1240     -0.0145      0.0156      0.0724
         9         0.0795     -0.0064     -0.0683      0.0110      0.0510
        10         0.0670     -0.1129      0.0017      0.0172      0.0752
        11        -0.0079     -0.1454      0.0048      0.0212      0.0922
        12        -0.0167      0.0668     -0.0014      0.0047      0.0200
        13         0.0248     -0.0797      0.0095      0.0071      0.0294
        14        -0.0537     -0.0734      0.0455      0.0103      0.0422
        15         0.0233     -0.0678     -0.0025      0.0051      0.0206
        16        -0.0350      0.0761      0.0164      0.0073      0.0287
        17         0.0197     -0.0774     -0.0122      0.0065      0.0255
        18         0.0050     -0.0269     -0.0041      0.0008      0.0030
        19         0.0210     -0.0294     -0.0169      0.0016      0.0062
        20        -0.0012      0.0058      0.0016      0.0000      0.0001
        21         0.0377      0.0007      0.0079      0.0015      0.0056
        22         0.0754      0.0151      0.0141      0.0061      0.0230
        23        -0.0174     -0.0044     -0.0041      0.0003      0.0013
        24         0.1143      0.0495      0.0068      0.0156      0.0578
        25         0.0224      0.0217      0.0040      0.0010      0.0036
        26         0.0079      0.0056     -0.0066      0.0001      0.0005
        27         0.0071      0.0006      0.0007      0.0001      0.0002
        28         0.0000      0.0058     -0.0030      0.0000      0.0001
        29         0.1263      0.0221      0.0076      0.0165      0.0577
        30        -0.0165      0.0752      0.0037      0.0059      0.0204
        31        -0.0066      0.0659     -0.0007      0.0044      0.0150
        32        -0.0018      0.0092      0.0153      0.0003      0.0011
        33        -0.0198      0.0651     -0.0361      0.0059      0.0199
        34        -0.0010      0.0217      0.0466      0.0026      0.0088
        35        -0.0086      0.0161     -0.0437      0.0022      0.0074
        36         0.0326     -0.0494     -0.0016      0.0035      0.0115
        37        -0.0690     -0.0107      0.0650      0.0091      0.0298
        38        -0.0202     -0.0188     -0.0176      0.0011      0.0035
        39        -0.0268      0.2478      0.0182      0.0625      0.2007
        40         0.0040     -0.0193     -0.0156      0.0006      0.0020
        41        -0.0180      0.1014      0.0140      0.0108      0.0342
        42        -0.0333     -0.0330      0.0470      0.0044      0.0138
        43        -0.0129      0.0449     -0.0475      0.0044      0.0139
        44         0.0646     -0.0416      0.0284      0.0067      0.0209
        45        -0.0701     -0.0433      0.0445      0.0088      0.0271
        46        -0.0492      0.1922     -0.0132      0.0395      0.1217
        47         0.0211      0.1649      0.0266      0.0283      0.0869
        48        -0.0104     -0.0244      0.0033      0.0007      0.0022
        49        -0.0096      0.0206      0.0012      0.0005      0.0016
        50        -0.0218     -0.0002     -0.0125      0.0006      0.0019
        51        -0.0238     -0.0042     -0.0020      0.0006      0.0017
        52         0.0482     -0.0906      0.0132      0.0107      0.0316
        53         0.1118     -0.1697      0.0246      0.0419      0.1232
        54        -0.0514      0.1136     -0.0659      0.0199      0.0583
        55        -0.0100      0.2093     -0.0174      0.0442      0.1285
        56        -0.1563     -0.0433     -0.0639      0.0304      0.0877
        57         0.0441     -0.0449      0.0229      0.0045      0.0128
        58         0.0348     -0.1376     -0.0084      0.0202      0.0571
        59        -0.0146     -0.2418     -0.0669      0.0632      0.1781
        60         0.0851     -0.4499     -0.0382      0.2111      0.5872
 Ground to excited state transition magnetic dipole moments (Au):
       state          X           Y           Z
         1         0.1629      0.6329     -0.6654
         2         0.3167      0.0577      0.1828
         3        -0.1989     -0.0550     -0.7405
         4        -0.0403     -0.0448     -0.1112
         5         0.0457      0.0092      0.1314
         6        -0.0027     -0.0075     -0.0404
         7        -0.0050     -0.0088      0.0124
         8         0.3687     -0.0620     -0.0721
         9         0.0075     -0.6509      0.0600
        10        -0.1790     -0.0693     -0.0363
        11        -0.3036     -0.0514     -0.1311
        12         0.4938      0.1281      0.7631
        13         0.0873     -0.0515      0.3176
        14        -0.0160      0.3431      0.1168
        15         0.3273      0.0627      0.7636
        16         0.0516      0.0737     -0.5145
        17        -0.0221     -0.0616      0.3363
        18        -0.0262     -0.0228      0.0525
        19        -0.1011     -0.1621      0.0168
        20         0.0302      0.0154      0.0387
        21         0.0381     -0.0494     -0.0109
        22         0.0819     -0.0747     -0.0226
        23        -0.0255      0.0060     -0.0072
        24         0.0975     -0.1011     -0.0256
        25         0.0735     -0.0060     -0.0019
        26         0.0523      0.0002      0.1094
        27         0.0593      0.0161      0.0973
        28         0.0033     -0.0227     -0.0327
        29        -0.1303     -0.1479     -0.1441
        30        -0.3234     -0.1341     -0.7369
        31         0.0977     -0.0208     -0.4138
        32        -0.0923      0.1231     -0.1877
        33        -0.0435     -0.2070     -0.4091
        34         0.2274      0.0574      0.1920
        35        -0.0668     -0.3207      0.0701
        36        -0.0457     -0.0953      0.0867
        37         0.2967      0.3910      0.3369
        38        -0.0400     -0.0068      0.0910
        39         0.7649      0.0837      0.6965
        40        -0.1707     -0.0632     -0.1385
        41        -0.0815      0.0297     -0.5298
        42        -0.0619      0.0837     -0.1850
        43        -0.1078     -0.1689     -0.4072
        44         0.0366      0.0714      0.1679
        45        -0.1844      0.3686     -0.0615
        46        -0.1250      0.0168     -0.9443
        47        -0.0746     -0.1076     -0.9112
        48         0.1883      0.1158      0.3045
        49         0.1206      0.0107      0.1247
        50        -0.5006     -0.1634     -0.4693
        51        -0.0288      0.2018      0.2038
        52        -0.1037     -0.1292      0.1858
        53        -0.1391     -0.0850      0.4154
        54         0.2278      0.3330      0.0082
        55         0.2196     -0.2456     -0.3398
        56        -0.2757      0.0172      0.0110
        57         0.4934     -0.1442      0.4561
        58         0.6945     -0.0862      0.4461
        59         1.2209      0.4090      1.0172
        60        -1.3326     -0.2242     -1.0233
 Ground to excited state transition velocity quadrupole moments (Au):
       state          XX          YY          ZZ          XY          XZ          YZ
         1        -0.0052     -0.0097     -0.0124      0.0054      0.0151     -0.0152
         2         0.1373     -0.1304      0.0108     -0.3961      0.0354     -0.0960
         3         0.0273     -0.0271     -0.0012     -0.0511      0.0414     -0.1368
         4        -0.0498     -0.0844      0.0296      0.0032     -0.0230     -0.0186
         5        -0.0607     -0.1472      0.0227      0.0433     -0.0462      0.0363
         6         0.0102      0.0166     -0.0029     -0.0251      0.0119     -0.0147
         7        -0.0137     -0.0034      0.0016      0.0140     -0.0031      0.0076
         8         0.0801     -0.0964      0.0380     -0.5005      0.0827     -0.1451
         9        -0.3978      0.4467     -0.0034     -0.0833      0.2340      0.0693
        10        -0.2594      0.0210      0.0356      0.5873     -0.1204      0.1995
        11        -0.2140      0.4292     -0.0743      0.6999      0.0006      0.2394
        12         0.1939     -0.1447     -0.0036     -0.5021      0.0147      0.0044
        13        -0.1772      0.0541      0.0671      0.2988     -0.0773      0.1164
        14         0.1059      0.0325      0.0725      0.2644     -0.2125      0.0316
        15        -0.1503      0.1232      0.0099      0.0144     -0.0242      0.2056
        16        -0.0357     -0.0429      0.1683     -0.2465     -0.0592     -0.2854
        17        -0.0631      0.1200     -0.0900      0.2396      0.0335      0.1797
        18        -0.0320      0.0519     -0.0268      0.0945      0.0123      0.0457
        19        -0.2423      0.1801     -0.0018      0.1252      0.0415      0.1149
        20         0.0167     -0.0174      0.0051     -0.0203     -0.0074      0.0032
        21        -0.0868     -0.1079      0.0414      0.0383     -0.0439      0.0088
        22        -0.1478     -0.2826      0.0816      0.0251     -0.0908      0.0032
        23         0.0255      0.0798     -0.0244     -0.0060      0.0296     -0.0033
        24        -0.1355     -0.5357      0.1092     -0.0506     -0.1272     -0.0068
        25        -0.0575     -0.0932      0.0849      0.0660     -0.0524      0.0193
        26        -0.0454      0.0195     -0.0566      0.0106      0.0618      0.0179
        27        -0.0168     -0.0234      0.0176      0.0189     -0.0146      0.0290
        28        -0.0116      0.0460      0.0045      0.0126      0.0131     -0.0003
        29        -0.1835     -0.5694      0.0686      0.0591     -0.0516     -0.0268
        30        -0.0788      0.1522     -0.0117      0.1828      0.1296     -0.2363
        31         0.0216     -0.0453      0.0274     -0.0900      0.0219     -0.0907
        32        -0.0217     -0.2035      0.1117      0.0123     -0.1173     -0.1976
        33        -0.1028      0.2094     -0.0524     -0.0501      0.1602     -0.0456
        34        -0.1138     -0.1868      0.2101      0.2757     -0.1727     -0.0133
        35         0.0165      0.3765     -0.2143      0.0499      0.2593      0.2462
        36         0.0058     -0.1924     -0.0079     -0.0893     -0.0184     -0.0026
        37        -0.0475      0.0162      0.3586      0.1854     -0.3348     -0.1805
        38         0.1603      0.0527     -0.1462     -0.0466      0.0756      0.0254
        39        -0.6472      0.3981      0.1024      1.4632     -0.0361      0.7925
        40         0.1393     -0.0086     -0.1321     -0.1855      0.1214     -0.0569
        41         0.1529     -0.2577      0.0723     -0.3757     -0.0031     -0.2721
        42        -0.0435     -0.0586      0.3704     -0.0149     -0.3232     -0.3231
        43        -0.1328      0.2911     -0.0662     -0.1612      0.1815     -0.1256
        44        -0.0067     -0.2657      0.0996      0.0757     -0.1033      0.0288
        45         0.4011     -0.3818     -0.0440      0.3394     -0.2634      0.0262
        46         0.3018     -0.1378     -0.1375     -0.4924      0.2362     -0.4373
        47        -0.0524     -0.3818      0.3126     -0.3061     -0.0658     -0.4693
        48         0.0179     -0.0453     -0.0267     -0.1916      0.0387     -0.0624
        49        -0.2358      0.2547      0.0089      0.3735      0.0514      0.0912
        50         0.1846      0.0007     -0.0615      0.1639     -0.0320      0.0734
        51        -0.0787     -0.1700      0.0200     -0.0055     -0.0409     -0.0721
        52        -0.0895      0.1961     -0.0075      0.3685     -0.0061      0.1438
        53        -0.5181      0.1556      0.1342      0.8229     -0.0611      0.2558
        54         0.7781     -0.1938     -0.0133     -1.5068     -0.0226     -0.2672
        55         0.6293     -0.5157     -0.0408     -1.9136      0.2566     -0.4409
        56        -0.1008      1.1885     -0.3303      0.9172      0.2524      0.0879
        57         0.2417     -0.3813      0.0265     -0.7089     -0.1112      0.2733
        58         0.1133     -0.4605      0.1497     -0.9244     -0.2123      0.4056
        59         0.6744     -0.5330      0.0341     -1.8480     -0.4383      0.6808
        60         0.9808     -0.5981     -0.3274     -2.2306      0.1970     -1.6597
 <0|del|b> * <b|rxdel|0> + <0|del|b> * <b|delr+rdel|0>
 Rotatory Strengths (R) in cgs (10**-40 erg-esu-cm/Gauss)
       state          XX          YY          ZZ    R(velocity)    E-M Angle
         1         2.5280      5.1963      4.3540      4.0261       72.56
         2         8.7526    -18.1142      5.0209     -1.4469       91.23
         3       -12.9413     11.7478      0.1372     -0.3521       90.27
         4         1.8068     -1.0931     -3.1692     -0.8185       97.88
         5         3.2914      7.7124      1.3709      4.1249       53.33
         6        -0.0897      0.2476     -0.0328      0.0417       90.00
         7         0.0079      0.0325     -0.0404      0.0000       90.00
         8       -23.7086    -17.1426      2.0680    -12.9278       99.54
         9        17.8457     -9.0262     -5.4562      1.1211       89.43
        10       -11.1984      0.7564     -9.1365     -6.5262       99.49
        11        23.6644     -7.9459     26.9452     14.2212       79.05
        12        16.1812    -22.5427      3.0478     -1.1046       90.67
        13         8.3589     11.5704     21.0880     13.6725       70.64
        14       -50.7383    -16.3657    -15.2303    -27.4448      121.01
        15       -16.5250     22.4164      0.4726      2.1213       88.56
        16        -4.9029      7.9359    -22.3728     -6.4466       95.95
        17         0.6539      3.9815     -3.7392      0.2988       89.55
        18         0.7121      0.5535     -0.1587      0.3690       81.13
        19         7.3686      4.3633     -2.0582      3.2246       72.08
        20         0.3324      0.1184      0.0305      0.1605       68.12
        21         0.4253      2.7632      2.0762      1.7549       57.44
        22         0.5562     11.4797      6.8883      6.3081       57.67
        23         0.3149      1.0111      0.4586      0.5949       26.67
        24         1.5348     20.7454      1.2041      7.8281       70.44
        25         2.4234      3.4643     -0.1061      1.9272       49.46
        26        -2.1701     -0.1814      1.1821     -0.3898      102.43
        27         0.1971      1.3013      0.4117      0.6367       52.44
        28        -0.2734      0.2507     -0.1028     -0.0418       90.00
        29        -5.1572    -39.6585    -32.4513    -25.7557      131.61
        30       -39.8560     10.6509      1.9896     -9.0719       96.82
        31        -4.4451      0.3312     -2.1268     -2.0802       93.51
        32        -0.8285     -4.5768     -0.2419     -1.8824      111.09
        33       -12.9833     26.1556     -5.4716      2.5669       86.49
        34        47.2984     -7.2822     -4.8583     11.7193       50.29
        35       -25.6341     -4.2645      2.9932     -8.9685      118.82
        36         6.6256     -3.2349      7.3439      3.5782       67.64
        37        45.4620      3.1753    -58.1733     -3.1787       92.77
        38         1.3373     -3.6759      0.0536     -0.7617      101.66
        39       117.4304    -94.9284     21.3504     14.6175       87.16
        40        14.5310     -2.7888     -2.6629      3.0264       62.06
        41       -15.7229      7.0553     -1.2198     -3.2958       93.02
        42       -37.9473      8.0511     -1.3598    -10.4187      131.81
        43        18.6248     24.3460      0.5536     14.5081       64.24
        44        -0.5612     11.2819      3.0218      4.5808       74.13
        45       -24.5184    -11.0668     16.7322     -6.2843       98.48
        46       -37.9865     54.8341     54.3116     23.7197       83.39
        47       -63.9913    -44.8756    -32.9867    -47.2845      106.34
        48        -2.4353      0.4975    -10.2686     -4.0688      112.16
        49        -0.4019     -3.7263      1.5948     -0.8445      101.54
        50         6.1223     27.4132     19.9468     17.8274       18.45
        51        -2.2111      3.1120     -2.6709     -0.5900       94.64
        52        28.8534     -0.7352      0.5088      9.5423       69.19
        53        53.8744      4.6921    -30.1731      9.4645       84.28
        54       216.4034   -152.1027     15.2765     26.5257       63.28
        55      -101.7010    -38.7497     -6.6084    -49.0197      118.63
        56       -75.2023    133.5283     69.1054     42.4771       30.23
        57        -6.4922     91.3156     32.0126     38.9453       32.87
        58       -19.9866     40.1035     76.6156     32.2442       74.13
        59      -223.2636   -328.0577     -1.1619   -184.1611      116.62
        60       463.1955   -444.0136     59.0978     26.0932       88.05
 1/2[<0|r|b>*<b|rxdel|0> + (<0|rxdel|b>*<b|r|0>)*]
 Rotatory Strengths (R) in cgs (10**-40 erg-esu-cm/Gauss)
       state          XX          YY          ZZ     R(length)
         1         1.1737      7.2091     -0.7503      2.5442
         2       -30.1445     31.2571     -4.0632     -0.9836
         3        12.1478    -15.0150     -0.2295     -1.0323
         4        -5.4079     -2.6607      6.3204     -0.5827
         5         6.1763     -0.3442      7.8860      4.5727
         6         0.0565     -0.2980      0.3827      0.0471
         7        -0.1176      0.1473     -0.0387     -0.0030
         8        -6.2463    -37.5119      4.7265    -13.0106
         9         2.8538     16.7776    -18.3339      0.4325
        10       -55.2429     36.3354     -0.1143     -6.3406
        11         9.4563     35.4391     -3.7125     13.7276
[...]
    11  C   -0.018552  -0.000046   0.000002  -0.000026  -0.000204   0.000073
    12  C    0.000743   0.000000   0.000000  -0.000001   0.000200   0.000285
    13  C    0.000019   0.000001   0.000000  -0.000001  -0.000077   0.000144
    14  C    0.000002   0.000000   0.000000  -0.000001   0.000135  -0.000226
    15  C    0.000000   0.000000   0.000000   0.000000  -0.000001   0.000112
    16  C    0.000000   0.000000   0.000000   0.000000   0.000003   0.000019
    17  C    0.000000   0.000000   0.000000   0.000001  -0.000012  -0.000017
    18  C   -0.000009   0.000001   0.000000   0.000000  -0.000024  -0.000039
    19  O    0.000257   0.000000   0.000000   0.000001  -0.000105  -0.000030
    20  C    0.000149   0.000000   0.000000   0.000000  -0.000013   0.000021
    21  C    0.000197   0.000000   0.000000   0.000000   0.000000  -0.000040
    22  C    0.000038   0.000000   0.000000   0.000000   0.000000   0.000001
    23  C    0.000016   0.000000   0.000000   0.000000   0.000000   0.000000
    24  C   -0.000314   0.000000   0.000000   0.000000   0.000000   0.000000
    25  C   -0.001050   0.000000   0.000000   0.000000   0.000000  -0.000010
    26  C    0.007672  -0.000003   0.000000   0.000000  -0.000042   0.000000
    27  C    0.002176   0.000116   0.000000   0.000000   0.000003   0.000000
    28  C    0.000481  -0.000001   0.000000   0.000000   0.000000   0.000000
    29  C   -0.008423   0.000000   0.000000   0.000000   0.000000   0.000000
    30  C    0.000543   0.000000   0.000000   0.000000   0.000000   0.000000
    31  C    0.177272   0.000000   0.000000   0.000000   0.000001   0.000000
    32  H    0.000000   0.004013   0.000040  -0.000005   0.000000   0.000000
    33  H    0.000000   0.000040  -0.007681   0.000061   0.000003   0.000000
    34  H    0.000000  -0.000005   0.000061   0.003873   0.000024   0.000000
    35  H    0.000001   0.000000   0.000003   0.000024  -0.007875   0.000011
    36  H    0.000000   0.000000   0.000000   0.000000   0.000011  -0.000080
    37  H    0.000000   0.000000   0.000000   0.000000   0.000000  -0.000050
    38  H    0.000000   0.000000   0.000000   0.000000   0.000000   0.000000
    39  H    0.000000   0.000000   0.000000   0.000000   0.000000   0.000000
    40  H    0.000009  -0.000005   0.000000   0.000000   0.000004   0.000002
    41  H   -0.000245   0.000000   0.000000   0.000000  -0.000009   0.000029
    42  H    0.000023   0.000000   0.000000   0.000000   0.000000   0.000016
    43  H   -0.000002   0.000000   0.000000   0.000000   0.000000   0.000000
    44  H    0.000000   0.000000   0.000000   0.000000   0.000000   0.000000
    45  H    0.000008   0.000000   0.000000   0.000000   0.000000   0.000000
    46  H   -0.000187   0.000000   0.000000   0.000000   0.000000   0.000000
    47  H   -0.000022   0.000001   0.000000   0.000000   0.000000   0.000000
    48  H   -0.000057   0.000000   0.000000   0.000000   0.000000   0.000000
    49  H   -0.000051   0.000000   0.000000   0.000000   0.000000   0.000000
    50  H    0.000802   0.000000   0.000000   0.000000   0.000000   0.000000
              37         38         39         40         41         42
     1  O    0.000000   0.000000   0.000000  -0.000126   0.000000   0.000000
     2  O    0.000000   0.000000   0.000002  -0.000134   0.000000   0.000000
     3  C    0.000000   0.000000  -0.000001   0.000598   0.000000   0.000000
     4  H    0.000000   0.000000   0.000000   0.000025   0.000000   0.000000
     5  C    0.000000   0.000000  -0.000001   0.000039  -0.000001   0.000000
     6  C    0.000000   0.000000   0.000000  -0.000085   0.000000   0.000000
     7  C    0.000000   0.000000   0.000000   0.000016   0.000000   0.000000
     8  C    0.000000   0.000000   0.000000  -0.000005  -0.000001   0.000000
     9  C   -0.000003   0.000000  -0.000002   0.000087  -0.000131   0.000000
    10  C    0.000000   0.000000   0.000000  -0.000002   0.000025   0.000000
    11  C    0.000001   0.000000   0.000006  -0.002231   0.000012   0.000178
    12  C   -0.000003   0.000000  -0.000001   0.000237   0.000673   0.000343
    13  C    0.000070   0.000003  -0.000048   0.001548  -0.000086   0.000097
    14  C    0.000190  -0.000004   0.000004  -0.000072   0.000042  -0.000045
    15  C   -0.000239   0.000031   0.000002   0.000032   0.000003   0.000003
    16  C   -0.000110  -0.000004   0.000008  -0.000072   0.000000   0.000000
    17  C    0.000012  -0.000006   0.000184  -0.000465  -0.000001  -0.000001
    18  C    0.000009  -0.000016  -0.000199   0.001356  -0.000015  -0.000006
    19  O   -0.000001   0.000000   0.000000  -0.000019   0.000581  -0.000231
    20  C    0.000000   0.000000   0.000000   0.000009  -0.000143   0.000280
    21  C    0.000000   0.000000   0.000000  -0.000004   0.000128  -0.000317
    22  C    0.000000   0.000000   0.000000   0.000001   0.000017   0.000030
    23  C    0.000000   0.000000   0.000000  -0.000001   0.000000  -0.000003
    24  C    0.000000   0.000000   0.000000   0.000005  -0.000002   0.000002
    25  C    0.000000   0.000000   0.000000   0.000065  -0.000040  -0.000146
    26  C    0.000000   0.000000   0.000000   0.000003  -0.000073  -0.000016
    27  C    0.000000   0.000000   0.000000  -0.000197   0.000004   0.000001
    28  C    0.000000   0.000000   0.000000  -0.000008   0.000000   0.000000
    29  C    0.000000   0.000000   0.000000   0.000000   0.000001   0.000000
    30  C    0.000000   0.000000   0.000000   0.000000   0.000000   0.000002
    31  C    0.000000   0.000000   0.000000   0.000009  -0.000245   0.000023
    32  H    0.000000   0.000000   0.000000  -0.000005   0.000000   0.000000
    33  H    0.000000   0.000000   0.000000   0.000000   0.000000   0.000000
    34  H    0.000000   0.000000   0.000000   0.000000   0.000000   0.000000
    35  H    0.000000   0.000000   0.000000   0.000004  -0.000009   0.000000
    36  H   -0.000050   0.000000   0.000000   0.000002   0.000029   0.000016
    37  H    0.000218   0.000002   0.000001   0.000000   0.000000  -0.000001
    38  H    0.000002   0.000034   0.000003  -0.000001   0.000000   0.000000
    39  H    0.000001   0.000003  -0.000026   0.000074   0.000000   0.000000
    40  H    0.000000  -0.000001   0.000074  -0.002670   0.000001   0.000000
    41  H    0.000000   0.000000   0.000000   0.000001  -0.002471   0.000138
    42  H   -0.000001   0.000000   0.000000   0.000000   0.000138  -0.000087
    43  H    0.000000   0.000000   0.000000   0.000000   0.000000  -0.000039
    44  H    0.000000   0.000000   0.000000   0.000000   0.000000  -0.000001
    45  H    0.000000   0.000000   0.000000   0.000001   0.000000   0.000001
    46  H    0.000000   0.000000   0.000001  -0.000107   0.000000  -0.000010
    47  H    0.000000   0.000000   0.000000   0.000000   0.000000   0.000000
    48  H    0.000000   0.000000   0.000000   0.000000   0.000000   0.000000
    49  H    0.000000   0.000000   0.000000   0.000000  -0.000001   0.000000
    50  H    0.000000   0.000000   0.000000   0.000002  -0.000014   0.000015
              43         44         45         46         47         48
     1  O    0.000000   0.000000   0.000001  -0.000163  -0.000259  -0.000001
     2  O    0.000000   0.000000   0.000001  -0.001194  -0.000050   0.000000
     3  C    0.000000   0.000000   0.000000  -0.000005   0.000239   0.000013
     4  H    0.000000   0.000000   0.000000  -0.000009  -0.000011   0.000005
     5  C    0.000000   0.000000   0.000000   0.000082  -0.000090   0.000000
     6  C    0.000000   0.000000   0.000000   0.000005   0.000006   0.000000
     7  C    0.000000   0.000000   0.000000   0.000000   0.000000   0.000000
     8  C    0.000000   0.000000   0.000000   0.000000   0.000000   0.000000
     9  C    0.000000   0.000000   0.000000  -0.000008   0.000000   0.000000
    10  C    0.000000   0.000000   0.000000  -0.000114   0.000002   0.000000
    11  C    0.000000   0.000000  -0.000002  -0.000356  -0.000036   0.000002
    12  C   -0.000001   0.000000  -0.000007   0.000660   0.000000   0.000000
    13  C    0.000000   0.000000   0.000001  -0.000044   0.000000   0.000000
    14  C    0.000000   0.000000   0.000000   0.000001   0.000000   0.000000
    15  C    0.000000   0.000000   0.000000   0.000000   0.000000   0.000000
    16  C    0.000000   0.000000   0.000000   0.000000   0.000000   0.000000
    17  C    0.000000   0.000000   0.000000   0.000003   0.000000   0.000000
    18  C    0.000000   0.000000  -0.000001   0.000201   0.000000   0.000000
    19  O   -0.000001   0.000000   0.000000   0.000004   0.000000   0.000000
    20  C    0.000010   0.000014  -0.000098   0.001733   0.000000   0.000000
    21  C    0.000155  -0.000015   0.000026  -0.000216   0.000000   0.000000
    22  C   -0.000137   0.000042  -0.000024   0.000088   0.000000   0.000000
    23  C   -0.000017  -0.000029   0.000094  -0.000175   0.000000   0.000000
    24  C   -0.000014   0.000021  -0.000063   0.000070   0.000000   0.000000
    25  C    0.000021  -0.000035   0.000009   0.001830   0.000000   0.000000
    26  C    0.000000   0.000000  -0.000003   0.000207  -0.000027  -0.000023
    27  C    0.000000   0.000000   0.000001   0.000125   0.000046  -0.000040
    28  C    0.000000   0.000000   0.000000   0.000048  -0.000331   0.000119
    29  C    0.000000   0.000000   0.000000  -0.000001  -0.000318   0.001439
    30  C    0.000000   0.000000  -0.000001  -0.000004   0.000014   0.000309
    31  C   -0.000002   0.000000   0.000008  -0.000187  -0.000022  -0.000057
    32  H    0.000000   0.000000   0.000000   0.000000   0.000001   0.000000
    33  H    0.000000   0.000000   0.000000   0.000000   0.000000   0.000000
    34  H    0.000000   0.000000   0.000000   0.000000   0.000000   0.000000
    35  H    0.000000   0.000000   0.000000   0.000000   0.000000   0.000000
    36  H    0.000000   0.000000   0.000000   0.000000   0.000000   0.000000
    37  H    0.000000   0.000000   0.000000   0.000000   0.000000   0.000000
    38  H    0.000000   0.000000   0.000000   0.000000   0.000000   0.000000
    39  H    0.000000   0.000000   0.000000   0.000001   0.000000   0.000000
    40  H    0.000000   0.000000   0.000001  -0.000107   0.000000   0.000000
    41  H    0.000000   0.000000   0.000000   0.000000   0.000000   0.000000
    42  H   -0.000039  -0.000001   0.000001  -0.000010   0.000000   0.000000
    43  H   -0.000001   0.000005  -0.000001   0.000001   0.000000   0.000000
    44  H    0.000005   0.000041   0.000009  -0.000003   0.000000   0.000000
    45  H   -0.000001   0.000009  -0.000166   0.000198   0.000000   0.000000
    46  H    0.000001  -0.000003   0.000198  -0.004331  -0.000002   0.000000
    47  H    0.000000   0.000000   0.000000  -0.000002   0.003792   0.000071
    48  H    0.000000   0.000000   0.000000   0.000000   0.000071  -0.008449
    49  H    0.000000   0.000000   0.000000   0.000001  -0.000005   0.000060
    50  H    0.000000   0.000000   0.000001  -0.000016   0.000000   0.000005
              49         50
     1  O    0.000000   0.000000
     2  O    0.000000   0.000001
     3  C   -0.000001   0.000009
     4  H    0.000000   0.000001
     5  C    0.000000  -0.000001
     6  C    0.000000   0.000000
     7  C    0.000000   0.000000
     8  C    0.000000   0.000000
     9  C    0.000000   0.000001
    10  C    0.000000  -0.000036
    11  C   -0.000027  -0.000340
    12  C    0.000000   0.000178
    13  C    0.000000  -0.000006
    14  C    0.000000   0.000000
    15  C    0.000000   0.000000
    16  C    0.000000   0.000000
    17  C    0.000000   0.000000
    18  C    0.000000   0.000000
    19  O    0.000000  -0.000012
    20  C   -0.000001  -0.000049
    21  C    0.000000   0.000213
    22  C    0.000000   0.000012
    23  C    0.000000  -0.000005
    24  C    0.000000  -0.000005
    25  C    0.000001  -0.000047
    26  C    0.000002   0.001330
    27  C   -0.000033   0.000032
    28  C    0.000023  -0.000003
    29  C   -0.000372  -0.000068
    30  C   -0.000417   0.000457
    31  C   -0.000051   0.000802
    32  H    0.000000   0.000000
    33  H    0.000000   0.000000
    34  H    0.000000   0.000000
    35  H    0.000000   0.000000
    36  H    0.000000   0.000000
    37  H    0.000000   0.000000
    38  H    0.000000   0.000000
    39  H    0.000000   0.000000
    40  H    0.000000   0.000002
    41  H   -0.000001  -0.000014
    42  H    0.000000   0.000015
    43  H    0.000000   0.000000
    44  H    0.000000   0.000000
    45  H    0.000000   0.000001
    46  H    0.000001  -0.000016
    47  H   -0.000005   0.000000
    48  H    0.000060   0.000005
    49  H    0.004171   0.000025
    50  H    0.000025  -0.008819
 Mulliken charges and spin densities:
               1          2
     1  O   -0.161598   0.696138
     2  O   -0.113163   0.330504
     3  C    0.108030  -0.038310
     4  H    0.051340   0.012946
     5  C   -0.046463   0.143463
     6  C   -0.010985  -0.076763
     7  C    0.003228   0.142462
     8  C    0.012575  -0.079295
     9  C   -0.000640   0.145532
    10  C    0.052500  -0.153797
    11  C   -0.026519   0.732417
    12  C   -0.009916  -0.036801
    13  C   -0.001011   0.005892
    14  C    0.003179  -0.000012
    15  C   -0.001841   0.000797
    16  C   -0.013983  -0.000857
    17  C   -0.005659  -0.000122
    18  C   -0.001876   0.002532
    19  O   -0.246384   0.038642
    20  C   -0.013598   0.000546
    21  C   -0.011360  -0.000950
    22  C    0.002839   0.000657
    23  C   -0.015732  -0.001044
    24  C    0.001451   0.000517
    25  C    0.000719   0.000298
    26  C    0.052376  -0.164361
    27  C   -0.017389   0.166872
    28  C    0.000645  -0.084775
    29  C    0.001545   0.159790
    30  C    0.013664  -0.087513
    31  C   -0.015421   0.161439
    32  H    0.016933   0.003019
    33  H    0.025169  -0.005963
    34  H    0.024267   0.003110
    35  H    0.000349  -0.005792
    36  H    0.002827   0.000249
    37  H    0.019998   0.000093
    38  H    0.018163   0.000041
    39  H    0.018751   0.000007
    40  H   -0.006902  -0.002090
    41  H    0.172551  -0.001578
    42  H   -0.002326   0.000227
    43  H    0.020416  -0.000020
    44  H    0.019139   0.000048
    45  H    0.020344  -0.000016
    46  H   -0.002618  -0.001690
    47  H    0.013243   0.003019
    48  H    0.025602  -0.006547
    49  H    0.024354   0.003376
    50  H   -0.000813  -0.006337
 Sum of Mulliken charges =   0.00000   2.00000
 Mulliken charges and spin densities with hydrogens summed into heavy atoms:
               1          2
     1  O   -0.161598   0.696138
     2  O   -0.113163   0.330504
     3  C    0.159371  -0.025364
     5  C   -0.046463   0.143463
     6  C    0.005949  -0.073745
     7  C    0.028396   0.136498
     8  C    0.036843  -0.076185
     9  C   -0.000291   0.139740
    10  C    0.052500  -0.153797
    11  C   -0.026519   0.732417
    12  C   -0.009916  -0.036801
    13  C   -0.001011   0.005892
    14  C    0.006006   0.000236
    15  C    0.018156   0.000890
    16  C    0.004180  -0.000815
    17  C    0.013091  -0.000115
    18  C   -0.008778   0.000443
    19  O   -0.073832   0.037064
    20  C   -0.013598   0.000546
    21  C   -0.013686  -0.000723
    22  C    0.023254   0.000637
    23  C    0.003407  -0.000996
    24  C    0.021795   0.000501
    25  C   -0.001899  -0.001392
    26  C    0.052376  -0.164361
    27  C   -0.017389   0.166872
    28  C    0.013888  -0.081756
    29  C    0.027147   0.153244
    30  C    0.038018  -0.084137
    31  C   -0.016235   0.155101
 Electronic spatial extent (au):  <R**2>=           9490.9656
 Charge=              0.0000 electrons
 Dipole moment (field-independent basis, Debye):
    X=             -1.1538    Y=             -1.0025    Z=             -3.2086  Tot=              3.5541
 Quadrupole moment (field-independent basis, Debye-Ang):
   XX=           -155.3144   YY=           -151.6293   ZZ=           -172.4178
   XY=             -4.6780   XZ=             -1.2543   YZ=              4.3623
 Traceless Quadrupole moment (field-independent basis, Debye-Ang):
   XX=              4.4728   YY=              8.1579   ZZ=            -12.6306
   XY=             -4.6780   XZ=             -1.2543   YZ=              4.3623
 Octapole moment (field-independent basis, Debye-Ang**2):
  XXX=            -63.5148  YYY=            -12.8834  ZZZ=            -12.2984  XYY=             -5.7723
  XXY=             -3.8612  XXZ=             -7.3818  XZZ=             33.0511  YZZ=              5.6229
  YYZ=             -5.7171  XYZ=              1.9290
 Hexadecapole moment (field-independent basis, Debye-Ang**3):
 XXXX=          -5341.8941 YYYY=          -5075.4208 ZZZZ=          -1644.1636 XXXY=           -117.2389
 XXXZ=           -197.4146 YYYX=             85.4009 YYYZ=              4.2632 ZZZX=            -40.8422
 ZZZY=             33.7000 XXYY=          -1579.6495 XXZZ=          -1292.1646 YYZZ=          -1129.9024
 XXYZ=            -27.7978 YYXZ=             52.4917 ZZXY=            -47.0637
 N-N= 2.877997674920D+03 E-N=-8.702181171116D+03  KE= 1.258041007350D+03
 1|1|UNPC-CHSHR-P01|SP|UwB97XD TD-FC|CC-pVDZ|C27H20O3(3)|IBS|22-Jun-202
 4|0||# td=(nstates=60) wb97xd/cc-pvdz scrf=(cpcm,solvent=n,n-DiMethylF
 ormamide) geom=AllCheck guess=read maxdisk=900GB integral(ultrafinegri
 d)||OS7_conf4_triplet||0,3|O,0,5.9081696167,3.8850596053,-6.5315647748
 |O,0,6.5893483561,3.0094156885,-5.8625836699|C,0,5.8546543511,2.551757
 5847,-4.6325298331|H,0,4.8694696182,2.2363123248,-4.997591529|C,0,6.65
 99522442,1.4134578653,-4.0973203499|C,0,6.3600470451,0.0954940074,-4.4
 352078961|C,0,7.1557538108,-0.9491547703,-3.9690412334|C,0,8.263038226
 5,-0.6643616482,-3.1646950374|C,0,8.5784539539,0.6472251565,-2.8337824
 188|C,0,7.7829584789,1.7164223992,-3.2951690766|C,0,8.0509721974,3.106
 1699333,-2.9537469455|C,0,9.4761673784,3.5429066668,-2.6107757128|C,0,
 10.516824568,2.8780004759,-3.527702319|C,0,11.7676226237,2.528713749,-
 3.0140702864|C,0,12.747623688,1.9886306998,-3.847413989|C,0,12.4916457
 035,1.7990050221,-5.2045534068|C,0,11.2453735371,2.1532510281,-5.72281
 39392|C,0,10.265410776,2.6893248438,-4.8906908165|O,0,9.7862675542,3.1
 233718806,-1.2815697847|C,0,9.7149497529,5.0555903493,-2.7823303153|C,
 0,10.4236041379,5.7648397955,-1.812317994|C,0,10.6858546435,7.12637775
 26,-1.9797670001|C,0,10.2500661933,7.7899512495,-3.1240152506|C,0,9.55
 29680981,7.0808410937,-4.1050438638|C,0,9.2910004016,5.7248150749,-3.9
 369118958|C,0,6.9009233598,3.9909377908,-2.8792482314|C,0,5.7652277215
 ,3.6947777683,-3.6730956632|C,0,4.6233684453,4.4888449142,-3.612763402
 2|C,0,4.5675514215,5.58190736,-2.7491910362|C,0,5.6716802111,5.8787502
 119,-1.9467098344|C,0,6.8218011203,5.1026795529,-2.0123519325|H,0,5.49
 56543937,-0.1124316172,-5.0692801238|H,0,6.9133654621,-1.9805291892,-4
 .2286992273|H,0,8.8841274706,-1.4774904478,-2.7851177447|H,0,9.4284908
 967,0.8561015765,-2.1862945961|H,0,11.9707406406,2.6742333669,-1.95354
 49572|H,0,13.7183826459,1.714446587,-3.429791237|H,0,13.2578793983,1.3
 749430223,-5.8559793785|H,0,11.0294931802,2.0052215571,-6.7824999676|H
 ,0,9.2876028322,2.9377878902,-5.3078978592|H,0,9.0850880131,3.43929191
 47,-0.6980093061|H,0,10.7671700392,5.2474843692,-0.9165987463|H,0,11.2
 357644137,7.6679133271,-1.2076471561|H,0,10.452418756,8.8544598157,-3.
 2546669374|H,0,9.206756419,7.5892756588,-5.0067172117|H,0,8.7314783358
 ,5.1894447185,-4.7065258098|H,0,3.770859727,4.2480402485,-4.2500394619
 |H,0,3.6678062636,6.1965750525,-2.6996454703|H,0,5.6349760664,6.723352
 3577,-1.2568745002|H,0,7.6618958114,5.3563643649,-1.3675008702||Versio
 n=EM64W-G09RevD.01|State=3-A|HF=-1266.1197631|S2=2.045638|S2-1=0.|S2A=
 2.001288|RMSD=4.364e-010|PG=C01 [X(C27H20O3)]||@


 Discoveries are often made by not following instructions,
 by going off the main road, by trying the untried.
 -- Frank Tyger
 Job cpu time:       0 days  5 hours 21 minutes 58.0 seconds.
 File lengths (MBytes):  RWF=   4788 Int=      0 D2E=      0 Chk=    639 Scr=      1
 Normal termination of Gaussian 09 at Sat Jun 22 13:48:15 2024.
