 Entering Link 1 = C:\G09W\l1.exe PID=     14616.
  
 Copyright (c) 1988,1990,1992,1993,1995,1998,2003,2009,2013,
            Gaussian, Inc.  All Rights Reserved.
  
 This is part of the Gaussian(R) 09 program.  It is based on
 the Gaussian(R) 03 system (copyright 2003, Gaussian, Inc.),
 the Gaussian(R) 98 system (copyright 1998, Gaussian, Inc.),
 the Gaussian(R) 94 system (copyright 1995, Gaussian, Inc.),
 the Gaussian 92(TM) system (copyright 1992, Gaussian, Inc.),
 the Gaussian 90(TM) system (copyright 1990, Gaussian, Inc.),
 the Gaussian 88(TM) system (copyright 1988, Gaussian, Inc.),
 the Gaussian 86(TM) system (copyright 1986, Carnegie Mellon
 University), and the Gaussian 82(TM) system (copyright 1983,
 Carnegie Mellon University). Gaussian is a federally registered
 trademark of Gaussian, Inc.
  
 This software contains proprietary and confidential information,
 including trade secrets, belonging to Gaussian, Inc.
  
 This software is provided under written license and may be
 used, copied, transmitted, or stored only in accord with that
 written license.
  
 The following legend is applicable only to US Government
 contracts under FAR:
  
                    RESTRICTED RIGHTS LEGEND
  
 Use, reproduction and disclosure by the US Government is
 subject to restrictions as set forth in subparagraphs (a)
 and (c) of the Commercial Computer Software - Restricted
 Rights clause in FAR 52.227-19.
  
 Gaussian, Inc.
 340 Quinnipiac St., Bldg. 40, Wallingford CT 06492
  
  
 ---------------------------------------------------------------
 Warning -- This program may not be used in any manner that
 competes with the business of Gaussian, Inc. or will provide
 assistance to any competitor of Gaussian, Inc.  The licensee
 of this program is prohibited from giving any competitor of
 Gaussian, Inc. access to this program.  By using this program,
 the user acknowledges that Gaussian, Inc. is engaged in the
 business of creating and licensing software in the field of
 computational chemistry and represents and warrants to the
 licensee that it is not a competitor of Gaussian, Inc. and that
 it will not use this program in any manner prohibited above.
 ---------------------------------------------------------------
  

 Cite this work as:
 Gaussian 09, Revision D.01,
 M. J. Frisch, G. W. Trucks, H. B. Schlegel, G. E. Scuseria, 
 M. A. Robb, J. R. Cheeseman, G. Scalmani, V. Barone, B. Mennucci, 
 G. A. Petersson, H. Nakatsuji, M. Caricato, X. Li, H. P. Hratchian, 
 A. F. Izmaylov, J. Bloino, G. Zheng, J. L. Sonnenberg, M. Hada, 
 M. Ehara, K. Toyota, R. Fukuda, J. Hasegawa, M. Ishida, T. Nakajima, 
 Y. Honda, O. Kitao, H. Nakai, T. Vreven, J. A. Montgomery, Jr., 
 J. E. Peralta, F. Ogliaro, M. Bearpark, J. J. Heyd, E. Brothers, 
 K. N. Kudin, V. N. Staroverov, T. Keith, R. Kobayashi, J. Normand, 
 K. Raghavachari, A. Rendell, J. C. Burant, S. S. Iyengar, J. Tomasi, 
 M. Cossi, N. Rega, J. M. Millam, M. Klene, J. E. Knox, J. B. Cross, 
 V. Bakken, C. Adamo, J. Jaramillo, R. Gomperts, R. E. Stratmann, 
 O. Yazyev, A. J. Austin, R. Cammi, C. Pomelli, J. W. Ochterski, 
 R. L. Martin, K. Morokuma, V. G. Zakrzewski, G. A. Voth, 
 P. Salvador, J. J. Dannenberg, S. Dapprich, A. D. Daniels, 
 O. Farkas, J. B. Foresman, J. V. Ortiz, J. Cioslowski, 
 and D. J. Fox, Gaussian, Inc., Wallingford CT, 2013.
 
 ******************************************
 Gaussian 09:  EM64W-G09RevD.01 13-Apr-2013
                25-May-2024 
 ******************************************
 %nprocshared=15
 Will use up to   15 processors via shared memory.
 %mem=50GB
 %chk=D:\Yaroslav\pink-mystery\G2\opt-semi\G2.chk
 ----------------------------------------------------------------------
 # td=(nstates=60) wb97xd/cc-pvdz scrf=(cpcm,solvent=n,n-DiMethylFormam
 ide) geom=AllCheck guess=read maxdisk=900GB integral(ultrafinegrid)
 ----------------------------------------------------------------------
 1/29=7,38=1/1;
 2/12=2,40=1/2;
 3/5=16,11=9,14=-4,16=1,25=1,30=1,70=2101,72=148,74=-58,75=-5,116=-2/1,2,8,3;
 4/5=1/1;
 5/5=2,38=6,53=148/2;
 8/6=1,10=1,108=60/1;
 9/41=60,42=1,70=2/14;
 6/7=2,8=2,9=2,10=2/1;
 99/5=1,9=1/99;
 Structure from the checkpoint file:  "D:\Yaroslav\pink-mystery\G2\opt-semi\G2.chk"
 --
 G2
 --
 Charge =  0 Multiplicity = 1
 Redundant internal coordinates found in file.
 C,0,-3.2580170192,-1.1205716078,-2.0178689692
 C,0,-3.3898184541,0.2603555633,-2.09278344
 C,0,-2.3934696453,1.078311617,-1.5680588261
 C,0,-1.2663540573,0.553927787,-0.9158834589
 C,0,-1.1333968517,-0.8549636498,-0.8444860853
 C,0,-2.124714372,-1.6604574567,-1.4211997501
 C,0,-0.1191070435,1.3697597274,-0.3849037438
 C,0,1.1668552911,0.7403524087,-0.8379038965
 C,0,1.3010129437,-0.6698318653,-0.8715201158
 C,0,0.1417269695,-1.4726590284,-0.3469254129
 C,0,2.1712894176,1.5316722925,-1.4115373677
 C,0,3.3177510406,0.977569273,-1.9687291629
 C,0,3.4508445498,-0.4047476097,-2.0065632268
 C,0,2.4425612785,-1.2098076785,-1.4847005801
 C,0,0.2125428954,-2.5940731987,0.432977099
 C,0,-0.2073567973,2.5099848288,0.3653952591
 C,0,1.0316875088,3.0825625012,1.0684234836
 C,0,-1.0423616731,-3.1496812482,1.1213294404
 C,0,-1.4289896539,-4.6055529557,0.8836761413
 C,0,-1.9105428064,-5.4421444437,1.9169941232
 C,0,-1.6058740744,-5.0717870759,3.330754319
 C,0,-1.5532999343,-3.6072198189,3.5831411273
 C,0,-1.192582881,-2.7102269418,2.5703927423
 C,0,1.4242006785,4.5322364503,0.8040251728
 C,0,1.8823187837,5.3940181948,1.8272464572
 C,0,1.5453263466,5.058377038,3.2423347362
 C,0,1.486549226,3.6004245833,3.5292790335
 C,0,1.1486451687,2.6788010099,2.5308806822
 C,0,-1.9619919359,-3.0923176351,4.8278517502
 C,0,-1.8976285796,-1.7377006127,5.1080256401
 C,0,-1.4556757582,-0.8563291178,4.1202238296
 C,0,-1.1469378734,-1.341551263,2.8582500471
 C,0,-1.515974899,-5.0577311805,-0.4395088864
 C,0,-2.135857558,-6.2538940814,-0.7748321213
 C,0,-2.7287501997,-7.0119043255,0.2322107645
 C,0,-2.6054804477,-6.6111315619,1.5558539645
 C,0,1.5481027544,-3.3094298298,0.6191952139
 C,0,1.5416449436,4.951810908,-0.5275215189
 C,0,2.1694977412,6.1394947641,-0.8778219797
 C,0,2.7394629522,6.9221103946,0.1236214548
 C,0,2.5857827863,6.5539191674,1.453530789
 C,0,1.8666548778,3.1162902028,4.7952141519
 C,0,1.7954395137,1.7689409892,5.1069885181
 C,0,1.3757174163,0.8635307148,4.131305017
 C,0,1.0959470173,1.3175888976,2.8511109591
 C,0,-1.5465910996,3.229383851,0.5034570023
 C,0,-2.1411493507,3.4779541429,1.881881646
 C,0,-2.8458474127,4.6581006417,2.2034218846
 C,0,-2.6243428729,5.8667473866,1.3574477599
 C,0,-2.3514577936,5.5751549113,-0.0765540333
 C,0,-1.7096818379,4.3919585723,-0.4671491034
 C,0,-2.7851158547,6.4697415965,-1.0724457089
 C,0,-2.4781882907,6.2743076079,-2.4096662846
 C,0,-1.72366617,5.1601601718,-2.781457474
 C,0,-1.3680865063,4.2256402423,-1.8185344813
 C,0,-2.2292424176,2.3743164331,2.7389510854
 C,0,-3.032069828,2.3912938298,3.8713480818
 C,0,-3.8008199207,3.5222783108,4.1411057281
 C,0,-3.702812949,4.6359502257,3.3192577415
 C,0,2.1109888035,-3.5238840035,2.0165206266
 C,0,2.8079235833,-4.6955378112,2.3829337884
 C,0,2.6054989976,-5.9246696835,1.5620590491
 C,0,2.365417225,-5.6684685551,0.1154892545
 C,0,1.733001732,-4.4954321729,-0.3185835669
 C,0,2.8214348543,-6.5871180509,-0.8479832335
 C,0,2.5451251936,-6.4246773468,-2.1962485648
 C,0,1.7995598282,-5.3202243461,-2.6124025396
 C,0,1.4223482654,-4.3624492457,-1.6810802732
 C,0,2.1797102572,-2.3995106853,2.8480336808
 C,0,2.9564940924,-2.3883896886,3.9985200096
 C,0,3.7186660115,-3.5121339125,4.3134257519
 C,0,3.6391993351,-4.6456890992,3.5171592302
 C,0,1.2453307582,5.9830059157,4.1984907038
 C,0,-2.5907593369,7.1421744932,1.8380754689
 C,0,-1.3279326855,-5.9725821377,4.3158825827
 C,0,2.5607222619,-7.1879398294,2.0729383764
 C,0,1.9434840805,-8.3436082204,1.3448241431
 C,0,3.0920284211,-7.5387034967,3.4306925224
 C,0,-1.9566800319,8.2797647816,1.0960992783
 C,0,-3.1523742285,7.5259492239,3.1745278641
 C,0,0.5070685461,5.6453288878,5.4581928182
 C,0,1.5984551944,7.4347212813,4.0750736416
 C,0,-0.618397515,-5.6038812602,5.5833680933
 C,0,-1.6783755909,-7.4270306446,4.220141818
 C,0,-2.8996382479,-7.8724542053,4.745890257
 C,0,-3.2587571202,-9.2173547679,4.6678052775
 C,0,-2.4053529302,-10.1377217286,4.0563432411
 C,0,-1.1896104572,-9.7028078183,3.5307445194
 C,0,-0.8299281486,-8.3596377836,3.6224788728
 C,0,-0.9902683083,-6.148060205,6.8204128918
 C,0,-0.2913170609,-5.8285177888,7.9847485159
 C,0,0.8075381742,-4.9732894083,7.9323515274
 C,0,1.2072170124,-4.4484121761,6.7021285479
 C,0,0.507015647,-4.7626757676,5.5432608265
 C,0,2.3259952424,-7.4052215711,4.589615704
 C,0,2.8552288132,-7.7183620412,5.8401972732
 C,0,4.1626317614,-8.1900371466,5.9477740911
 C,0,4.9365876347,-8.3389012994,4.7954695078
 C,0,4.4067078081,-8.0123235187,3.5479134957
 C,0,2.510102876,-9.6249821328,1.3775667777
 C,0,1.8931205548,-10.6995679589,0.7361696592
 C,0,0.6852674014,-10.5185162534,0.0655439311
 C,0,0.0948515563,-9.2535134254,0.0502529822
 C,0,0.7133267749,-8.1823002029,0.6837445029
 C,0,-2.4126829411,7.4205414819,4.353283054
 C,0,-2.9696614918,7.763969192,5.5836921462
 C,0,-4.2788483092,8.2382568971,5.6503634158
 C,0,-5.0266120522,8.359193513,4.4776735811
 C,0,-4.4690496348,8.0023925164,3.2506223906
 C,0,-2.5235350524,9.5613921389,1.0842864463
 C,0,-1.8916660379,10.620045822,0.4309983696
 C,0,-0.6687669968,10.4228886728,-0.2070297283
 C,0,-0.0785263071,9.1580545376,-0.1776365286
 C,0,-0.7117122609,8.1025715724,0.4676242714
 C,0,0.7642567767,8.3523072863,3.4355537078
 C,0,1.1265981286,9.6928399749,3.3190468246
 C,0,2.3302990852,10.1406245746,3.8612884476
 C,0,3.1691427015,9.2356205322,4.5144057185
 C,0,2.8076837307,7.8930193546,4.6173216212
 C,0,0.8508123877,6.2198854098,6.689620183
 C,0,0.1254987729,5.9288092559,7.8452692729
 C,0,-0.9720507,5.0721629128,7.7889442551
 C,0,-1.3437650328,4.5170681379,6.5632219251
 C,0,-0.6173306307,4.8030016155,5.4132042902
 H,0,-4.0096931978,-1.7801613607,-2.4533425644
 H,0,-4.2486733731,0.7127999673,-2.5903302976
 H,0,-2.4950165503,2.1483887412,-1.7263632418
 H,0,-1.9967669894,-2.7400886622,-1.436145614
 H,0,2.0440125542,2.6105715729,-1.4559969449
 H,0,4.079341279,1.6264403025,-2.4030782062
 H,0,4.3206945034,-0.8690736379,-2.4730961903
 H,0,2.5473969491,-2.2834322051,-1.6142325613
 H,0,1.8777235155,2.5343089012,0.6331407022
 H,0,-1.8781238443,-2.6125769101,0.6535122861
 H,0,-2.3291067793,-3.7783222783,5.590199007
 H,0,-2.1986778722,-1.3653833279,6.0883503758
 H,0,-1.3662702361,0.208422754,4.3328273299
 H,0,-0.8715297545,-0.648488746,2.0619816569
 H,0,-1.0914755173,-4.4495740771,-1.2355827129
 H,0,-2.1825143573,-6.5712413491,-1.8176977944
 H,0,-3.2776475965,-7.9242739684,-0.0067806799
 H,0,-3.0709038411,-7.2193269182,2.3253334257
 H,0,2.2888125351,-2.5945358038,0.2363040395
 H,0,1.1352645421,4.3242086096,-1.3179362534
 H,0,2.24015148,6.4311502072,-1.9268214717
 H,0,3.2940437992,7.8284323658,-0.1250645756
 H,0,3.0337112857,7.1808915512,2.2183102963
 H,0,2.2165555114,3.8208749594,5.5486613669
 H,0,2.073985147,1.4208315698,6.1027392566
 H,0,1.2810789962,-0.1956980583,4.3678781054
 H,0,0.8384550761,0.6051452597,2.0660324573
 H,0,-2.2785922495,2.5051174643,0.1214379801
 H,0,-3.3671285619,7.343108035,-0.7798253709
 H,0,-2.8196104294,6.9900805142,-3.1589556775
 H,0,-1.4390403822,5.0025463274,-3.8229456147
 H,0,-0.8059851117,3.3427445186,-2.1254359211
 H,0,-1.6849150505,1.4683641111,2.470131356
 H,0,-3.0994002693,1.5135437088,4.5155408614
 H,0,-4.4826508612,3.537935676,4.9928914994
 H,0,-4.3232828887,5.49910223,3.5403709517
 H,0,3.3963884526,-7.4528680216,-0.520803767
 H,0,2.9033575318,-7.1585388968,-2.9197479247
 H,0,1.5388025744,-5.1883189623,-3.6636671221
 H,0,0.8676139073,-3.4875242571,-2.0223015553
 H,0,1.6418028538,-1.5006434633,2.5447156276
 H,0,3.0092878483,-1.4950683771,4.6223396157
 H,0,4.380899628,-3.5066290496,5.1806586861
 H,0,4.2542692983,-5.502933397,3.7735226071
 H,0,-3.5858998827,-7.1517265202,5.1963991626
 H,0,-4.2159733042,-9.5457142448,5.0771412637
 H,0,-2.6916846885,-11.1886638158,3.9863181569
 H,0,-0.5160212697,-10.4032605359,3.0324126755
 H,0,0.103931952,-8.0284305484,3.1792854642
 H,0,-1.8430887374,-6.8246889918,6.8833368773
 H,0,-0.6098544725,-6.2555067132,8.9375684733
 H,0,1.3582052063,-4.7265799666,8.8418764242
 H,0,2.0808546128,-3.7978417733,6.6384427678
 H,0,0.8465125704,-4.3620956088,4.5864894205
 H,0,1.3183419681,-7.0065040093,4.5254128829
 H,0,2.2394703192,-7.5770349484,6.7309977075
 H,0,4.5812784175,-8.4358529167,6.9253638503
 H,0,5.9639863421,-8.7005649832,4.8683205803
 H,0,5.028715658,-8.0990430252,2.6540578173
 H,0,3.4507934232,-9.7913853112,1.9033271397
 H,0,2.3621416385,-11.6848593946,0.7659815069
 H,0,0.1990411723,-11.3597932355,-0.4316070897
 H,0,-0.8634877051,-9.0988898404,-0.4481590674
 H,0,0.2269496374,-7.2050311035,0.6810216714
 H,0,-1.4041247826,7.0202359702,4.3213870723
 H,0,-2.3741637497,7.6441630754,6.4912671182
 H,0,-4.7192160024,8.5077503114,6.6120399327
 H,0,-6.0551624658,8.7226004338,4.5186188211
 H,0,-5.0707854433,8.0674295112,2.3411858027
 H,0,-3.4760093663,9.7404227043,1.5840408154
 H,0,-2.3609644646,11.6056423754,0.4257788158
 H,0,-0.1709995176,11.2518173993,-0.7134153305
 H,0,0.8909629249,8.9914765463,-0.649950241
 H,0,-0.2257070241,7.1256509777,0.5000876991
 H,0,-0.1594612891,8.0102640381,2.9795192548
 H,0,0.4648540508,10.3807944096,2.7884785834
 H,0,2.6186663075,11.1895458309,3.7719767578
 H,0,4.1169799447,9.5739986739,4.9371863864
 H,0,3.4831922732,7.1836275757,5.1008633662
 H,0,1.7021103309,6.8981707027,6.7552699611
 H,0,0.4223777185,6.3792066693,8.7942984846
 H,0,-1.5433024601,4.8476876418,8.6915055639
 H,0,-2.2158749184,3.8648376213,6.4956893895
 H,0,-0.9350769325,4.3789217567,4.4590928231
 Recover connectivity data from disk.
 Stoichiometry    C124H84
 Framework group  C1[X(C124H84)]
 Deg. of freedom   618
 Full point group                 C1      NOp   1
 Largest Abelian subgroup         C1      NOp   1
 Largest concise Abelian subgroup C1      NOp   1
                         Standard orientation:                         
 ---------------------------------------------------------------------
 Center     Atomic      Atomic             Coordinates (Angstroms)
 Number     Number       Type             X           Y           Z
 ---------------------------------------------------------------------
      1          6           0        0.704456   -4.201008    3.378463
      2          6           0       -0.683581   -4.257450    3.367898
      3          6           0       -1.387478   -3.734030    2.287315
      4          6           0       -0.741120   -3.101154    1.213821
      5          6           0        0.674802   -3.048586    1.226155
      6          6           0        1.366126   -3.623891    2.300968
      7          6           0       -1.427280   -2.573215   -0.016692
      8          6           0       -0.674905   -3.048450   -1.226298
      9          6           0        0.741020   -3.100910   -1.213975
     10          6           0        1.427140   -2.573126    0.016617
     11          6           0       -1.366185   -3.623654   -2.301195
     12          6           0       -0.704469   -4.200560   -3.378775
     13          6           0        0.683573   -4.256883   -3.368225
     14          6           0        1.387429   -3.733568   -2.287565
     15          6           0        2.560227   -1.807915    0.054029
     16          6           0       -2.560381   -1.808010   -0.054003
     17          6           0       -2.992844   -1.112075   -1.352454
     18          6           0        2.992810   -1.112275    1.352594
     19          6           0        4.397810   -1.363407    1.889652
     20          6           0        5.194121   -0.335060    2.444555
     21          6           0        4.876073    1.079603    2.089198
     22          6           0        3.428219    1.349357    1.883353
     23          6           0        2.559665    0.343688    1.442201
     24          6           0       -4.397796   -1.363067   -1.889706
     25          6           0       -5.194037   -0.334587   -2.444459
     26          6           0       -4.875968    1.079995   -2.088816
     27          6           0       -3.428110    1.349649   -1.882875
     28          6           0       -2.559638    0.343891   -1.441766
     29          6           0        2.890679    2.604850    2.224302
     30          6           0        1.553767    2.900902    2.017792
     31          6           0        0.709449    1.919064    1.497203
     32          6           0        1.206945    0.647807    1.252782
     33          6           0        4.820867   -2.690979    2.036028
     34          6           0        5.942232   -3.033934    2.779280
     35          6           0        6.648568   -2.029633    3.437082
     36          6           0        6.280382   -0.702645    3.259913
     37          6           0        3.411753   -1.645638   -1.202435
     38          6           0       -4.820837   -2.690602   -2.036474
     39          6           0       -5.942129   -3.033369   -2.779923
     40          6           0       -6.648405   -2.028903   -3.437540
     41          6           0       -6.280223   -0.701963   -3.260014
     42          6           0       -2.890497    2.605154   -2.223666
     43          6           0       -1.553592    2.901134   -2.017008
     44          6           0       -0.709368    1.919213   -1.496421
     45          6           0       -1.206926    0.647946   -1.252181
     46          6           0       -3.411964   -1.645961    1.202457
     47          6           0       -3.701964   -0.257941    1.754401
     48          6           0       -4.943997    0.086038    2.330391
     49          6           0       -6.134624   -0.747474    1.993897
     50          6           0       -5.835707   -2.187949    1.766887
     51          6           0       -4.598045   -2.600298    1.254486
     52          6           0       -6.783452   -3.167798    2.115916
     53          6           0       -6.575372   -4.510709    1.844163
     54          6           0       -5.394522   -4.904684    1.212313
     55          6           0       -4.415542   -3.957407    0.945391
     56          6           0       -2.601889    0.586445    1.947262
     57          6           0       -2.686292    1.727984    2.732696
     58          6           0       -3.886719    2.020308    3.377981
     59          6           0       -4.995281    1.211150    3.173873
     60          6           0        3.701727   -0.257518   -1.754147
     61          6           0        4.943726    0.086554   -2.330170
     62          6           0        6.134373   -0.747018   -1.993875
     63          6           0        5.835462   -2.187519   -1.767043
     64          6           0        4.597827   -2.599954   -1.254659
     65          6           0        6.783207   -3.167310   -2.116240
     66          6           0        6.575135   -4.510262   -1.844689
     67          6           0        5.394298   -4.904342   -1.212870
     68          6           0        4.415326   -3.957108   -0.945769
     69          6           0        2.601645    0.586918   -1.946761
     70          6           0        2.685988    1.728584   -2.732014
     71          6           0        3.886365    2.021005   -3.377348
     72          6           0        4.994945    1.211819   -3.173452
     73          6           0       -5.813689    2.050778   -1.895345
     74          6           0       -7.393260   -0.251621    1.824162
     75          6           0        5.813813    2.050377    1.895796
     76          6           0        7.393042   -0.251227   -1.824175
     77          6           0        8.469145   -0.986451   -1.083802
     78          6           0        7.814807    1.096010   -2.330024
     79          6           0       -8.469333   -0.986695    1.083602
     80          6           0       -7.814903    1.095721    2.329817
     81          6           0       -5.537001    3.314515   -1.138828
     82          6           0       -7.222840    1.941218   -2.395041
     83          6           0        5.537150    3.314181    1.139386
     84          6           0        7.223024    1.940745    2.395298
     85          6           0        7.547306    2.474777    3.650666
     86          6           0        8.846904    2.384243    4.147323
     87          6           0        9.841995    1.751891    3.399536
     88          6           0        9.527600    1.217943    2.150742
     89          6           0        8.229963    1.322097    1.653566
     90          6           0        6.056653    4.548577    1.553005
     91          6           0        5.826412    5.708761    0.813222
     92          6           0        5.088273    5.654437   -0.367390
     93          6           0        4.590922    4.426310   -0.806745
     94          6           0        4.815858    3.271672   -0.066318
     95          6           0        7.618674    2.265087   -1.593465
     96          6           0        8.001371    3.505652   -2.100062
     97          6           0        8.606580    3.592612   -3.352864
     98          6           0        8.818917    2.429874   -4.095782
     99          6           0        8.422829    1.192506   -3.589959
    100          6           0        9.802382   -0.975876   -1.515559
    101          6           0       10.799028   -1.623402   -0.784670
    102          6           0       10.485583   -2.278030    0.404717
    103          6           0        9.166412   -2.271088    0.861657
    104          6           0        8.173168   -1.631525    0.129710
    105          6           0       -7.618103    2.264640    1.593191
    106          6           0       -8.000559    3.505405    2.099456
    107          6           0       -8.606218    3.592721    3.352020
    108          6           0       -8.819212    2.430150    4.095013
    109          6           0       -8.423350    1.192571    3.589513
    110          6           0       -9.802567   -0.976337    1.515359
    111          6           0      -10.799170   -1.623680    0.784250
    112          6           0      -10.485681   -2.277891   -0.405358
    113          6           0       -9.166506   -2.270729   -0.862282
    114          6           0       -8.173299   -1.631358   -0.130110
    115          6           0       -8.229939    1.322511   -1.653562
    116          6           0       -9.527467    1.218390   -2.151029
    117          6           0       -9.841605    1.752427   -3.399851
    118          6           0       -8.846360    2.384832   -4.147383
    119          6           0       -7.546866    2.475328   -3.650444
    120          6           0       -6.056561    4.548938   -1.552284
    121          6           0       -5.826281    5.709063   -0.812411
    122          6           0       -5.088053    5.654648    0.368135
    123          6           0       -4.590654    4.426485    0.807347
    124          6           0       -4.815628    3.271915    0.066834
    125          1           0        1.277235   -4.636014    4.198466
    126          1           0       -1.228692   -4.739641    4.180448
    127          1           0       -2.464347   -3.878013    2.279548
    128          1           0        2.452896   -3.653551    2.285194
    129          1           0       -2.452953   -3.653408   -2.285419
    130          1           0       -1.277215   -4.635500   -4.198838
    131          1           0        1.228724   -4.738908   -4.180847
    132          1           0        2.464310   -3.877463   -2.279826
    133          1           0       -2.366254   -1.563616   -2.133047
    134          1           0        2.366274   -1.563961    2.133148
    135          1           0        3.545374    3.362818    2.652563
    136          1           0        1.165586    3.889074    2.269025
    137          1           0       -0.337491    2.143709    1.296352
    138          1           0        0.535331   -0.142952    0.915346
    139          1           0        4.249056   -3.484275    1.559057
    140          1           0        6.239094   -4.080026    2.868838
    141          1           0        7.496276   -2.273586    4.079501
    142          1           0        6.847660    0.064524    3.777857
    143          1           0        2.771880   -2.028079   -2.009053
    144          1           0       -4.249064   -3.484017   -1.559658
    145          1           0       -6.238978   -4.079438   -2.869786
    146          1           0       -7.496042   -2.272697   -4.080112
    147          1           0       -6.847434    0.065341   -3.777833
    148          1           0       -3.545148    3.363191   -2.651876
    149          1           0       -1.165346    3.889313   -2.268112
    150          1           0        0.337554    2.143809   -1.295426
    151          1           0       -0.535365   -0.142862   -0.914756
    152          1           0       -2.772115   -2.028537    2.009027
    153          1           0       -7.708117   -2.857895    2.601806
    154          1           0       -7.332469   -5.247231    2.117426
    155          1           0       -5.222394   -5.951187    0.955886
    156          1           0       -3.483641   -4.281480    0.480430
    157          1           0       -1.648377    0.300365    1.501976
    158          1           0       -1.811596    2.362063    2.883740
    159          1           0       -3.961105    2.879889    4.046012
    160          1           0       -5.914704    1.449866    3.699782
    161          1           0        7.707869   -2.857326   -2.602091
    162          1           0        7.332233   -5.246735   -2.118081
    163          1           0        5.222175   -5.950886   -0.956608
    164          1           0        3.483433   -4.281248   -0.480833
    165          1           0        1.648180    0.300780   -1.501410
    166          1           0        1.811287    2.362696   -2.882883
    167          1           0        3.960704    2.880685   -4.045256
    168          1           0        5.914330    1.450647   -3.699373
    169          1           0        6.765832    2.941851    4.254406
    170          1           0        9.080389    2.800327    5.129157
    171          1           0       10.856829    1.672204    3.793404
    172          1           0       10.286962    0.703445    1.557993
    173          1           0        7.990787    0.872459    0.695007
    174          1           0        6.642637    4.612835    2.470383
    175          1           0        6.231045    6.659809    1.164552
    176          1           0        4.911787    6.560631   -0.949628
    177          1           0        4.032989    4.360734   -1.742133
    178          1           0        4.439596    2.316112   -0.435731
    179          1           0        7.117479    2.217204   -0.631710
    180          1           0        7.809322    4.405038   -1.511098
    181          1           0        8.907272    4.562303   -3.753682
    182          1           0        9.285408    2.486636   -5.081084
    183          1           0        8.561169    0.290666   -4.190740
    184          1           0       10.071804   -0.462887   -2.439284
    185          1           0       11.827694   -1.611014   -1.149858
    186          1           0       11.265580   -2.779944    0.980052
    187          1           0        8.907255   -2.756677    1.803877
    188          1           0        7.151057   -1.616730    0.512717
    189          1           0       -7.116522    2.216407    0.631661
    190          1           0       -7.807920    4.404637    1.510444
    191          1           0       -8.906728    4.562562    3.752612
    192          1           0       -9.286032    2.487203    5.080143
    193          1           0       -8.562184    0.290875    4.190396
    194          1           0      -10.072029   -0.463666    2.439248
    195          1           0      -11.827838   -1.611473    1.149437
    196          1           0      -11.265645   -2.779656   -0.980865
    197          1           0       -8.907309   -2.756003   -1.804653
    198          1           0       -7.151175   -1.616408   -0.513081
    199          1           0       -7.990982    0.872798   -0.694983
    200          1           0      -10.286956    0.703844   -1.558486
    201          1           0      -10.856352    1.672752   -3.793941
    202          1           0       -9.079633    2.800978   -5.129240
    203          1           0       -6.765267    2.942435   -4.253997
    204          1           0       -6.642627    4.613273   -2.469604
    205          1           0       -6.230961    6.660132   -1.163627
    206          1           0       -4.911537    6.560794    0.950438
    207          1           0       -4.032670    4.360823    1.742699
    208          1           0       -4.439341    2.316324    0.436142
 ---------------------------------------------------------------------
 Rotational constants (GHZ):      0.0263536      0.0077257      0.0072889
 Standard basis: CC-pVDZ (5D, 7F)
 There are  2280 symmetry adapted cartesian basis functions of A   symmetry.
 There are  2156 symmetry adapted basis functions of A   symmetry.
  2156 basis functions,  4680 primitive gaussians,  2280 cartesian basis functions
   414 alpha electrons      414 beta electrons
       nuclear repulsion energy     26876.9034394204 Hartrees.
 NAtoms=  208 NActive=  208 NUniq=  208 SFac= 1.00D+00 NAtFMM=   60 NAOKFM=T Big=T
 Integral buffers will be    131072 words long.
 Raffenetti 1 integral format.
 Two-electron integral symmetry is turned on.
 Nuclear repulsion after empirical dispersion term =    26876.5915402997 Hartrees.
 ------------------------------------------------------------------------------
 Polarizable Continuum Model (PCM)
 =================================
 Model                : C-PCM.
 Atomic radii         : UFF (Universal Force Field).
 Polarization charges : Total charges.
 Charge compensation  : None.
 Solution method      : On-the-fly selection.
 Cavity type          : Scaled VdW (van der Waals Surface) (Alpha=1.100).
 Cavity algorithm     : GePol (No added spheres)
                        Default sphere list used, NSphG=  208.
                        Lebedev-Laikov grids with approx.  5.0 points / Ang**2.
                        Smoothing algorithm: Karplus/York (Gamma=1.0000).
                        Polarization charges: spherical gaussians, with
                                              point-specific exponents (IZeta= 3).
                        Self-potential: point-specific (ISelfS= 7).
                        Self-field    : sphere-specific E.n sum rule (ISelfD= 2).
 Solvent              : n,n-DiMethylFormamide, Eps=  37.219000 Eps(inf)=   2.046330
 ------------------------------------------------------------------------------
 One-electron integrals computed using PRISM.
 NBasis=  2156 RedAO= T EigKep=  1.39D-04  NBF=  2156
 NBsUse=  2156 1.00D-06 EigRej= -1.00D+00 NBFU=  2156
 Initial guess from the checkpoint file:  "D:\Yaroslav\pink-mystery\G2\opt-semi\G2.chk"
 B after Tr=     0.000000    0.000000    0.000000
         Rot=    1.000000    0.000000    0.000000    0.000000 Ang=   0.00 deg.
 Requested convergence on RMS density matrix=1.00D-08 within 128 cycles.
 Requested convergence on MAX density matrix=1.00D-06.
 Requested convergence on             energy=1.00D-06.
 No special actions if energy rises.
 Inv3:  Mode=1 IEnd=   391523328.
 Iteration    1 A*A^-1 deviation from unit magnitude is 9.66D-15 for   4344.
 Iteration    1 A*A^-1 deviation from orthogonality  is 5.38D-15 for  10513   4344.
 Iteration    1 A^-1*A deviation from unit magnitude is 6.22D-15 for   3935.
 Iteration    1 A^-1*A deviation from orthogonality  is 2.94D-15 for   9157   2804.
 Error on total polarization charges =  0.02460
 SCF Done:  E(RwB97XD) =  -4774.58482608     A.U. after    1 cycles
            NFock=  1  Conv=0.86D-08     -V/T= 2.0069
 DoSCS=F DFT=T ScalE2(SS,OS)=  1.000000  1.000000
 ExpMin= 1.22D-01 ExpMax= 6.67D+03 ExpMxC= 2.28D+02 IAcc=3 IRadAn=         5 AccDes= 0.00D+00
 HarFok:  IExCor=  205 AccDes= 0.00D+00 IRadAn=         5 IDoV=-2 UseB2=F ITyADJ=14
 ICtDFT= 12500011 ScaDFX=  1.000000  1.000000  1.000000  1.000000
 Range of M.O.s used for correlation:   125  2156
 NBasis=  2156 NAE=   414 NBE=   414 NFC=   124 NFV=     0
 NROrb=   2032 NOA=   290 NOB=   290 NVA=  1742 NVB=  1742

 **** Warning!!: The largest alpha MO coefficient is  0.15556778D+02

 Would need an additional      16293565800000 words for in-memory AO integral storage.
 NEqPCM:  Using non-equilibrium solvation (IEInf=1, Eps=  37.2190, EpsInf=   2.0463)
 Inv3:  Mode=1 IEnd=   391523328.
 Iteration    1 A*A^-1 deviation from unit magnitude is 9.66D-15 for   4344.
 Iteration    1 A*A^-1 deviation from orthogonality  is 5.38D-15 for  10513   4344.
 Iteration    1 A^-1*A deviation from unit magnitude is 6.22D-15 for   3935.
 Iteration    1 A^-1*A deviation from orthogonality  is 2.94D-15 for   9157   2804.
 Orbital symmetries:
       Occupied  (A) (A) (A) (A) (A) (A) (A) (A) (A) (A) (A) (A)
                 (A) (A) (A) (A) (A) (A) (A) (A) (A) (A) (A) (A)
                 (A) (A) (A) (A) (A) (A) (A) (A) (A) (A) (A) (A)
                 (A) (A) (A) (A) (A) (A) (A) (A) (A) (A) (A) (A)
                 (A) (A) (A) (A) (A) (A) (A) (A) (A) (A) (A) (A)
                 (A) (A) (A) (A) (A) (A) (A) (A) (A) (A) (A) (A)
                 (A) (A) (A) (A) (A) (A) (A) (A) (A) (A) (A) (A)
                 (A) (A) (A) (A) (A) (A) (A) (A) (A) (A) (A) (A)
                 (A) (A) (A) (A) (A) (A) (A) (A) (A) (A) (A) (A)
                 (A) (A) (A) (A) (A) (A) (A) (A) (A) (A) (A) (A)
                 (A) (A) (A) (A) (A) (A) (A) (A) (A) (A) (A) (A)
                 (A) (A) (A) (A) (A) (A) (A) (A) (A) (A) (A) (A)
                 (A) (A) (A) (A) (A) (A) (A) (A) (A) (A) (A) (A)
                 (A) (A) (A) (A) (A) (A) (A) (A) (A) (A) (A) (A)
                 (A) (A) (A) (A) (A) (A) (A) (A) (A) (A) (A) (A)
                 (A) (A) (A) (A) (A) (A) (A) (A) (A) (A) (A) (A)
                 (A) (A) (A) (A) (A) (A) (A) (A) (A) (A) (A) (A)
                 (A) (A) (A) (A) (A) (A) (A) (A) (A) (A) (A) (A)
                 (A) (A) (A) (A) (A) (A) (A) (A) (A) (A) (A) (A)
                 (A) (A) (A) (A) (A) (A) (A) (A) (A) (A) (A) (A)
                 (A) (A) (A) (A) (A) (A) (A) (A) (A) (A) (A) (A)
                 (A) (A) (A) (A) (A) (A) (A) (A) (A) (A) (A) (A)
                 (A) (A) (A) (A) (A) (A) (A) (A) (A) (A) (A) (A)
                 (A) (A) (A) (A) (A) (A) (A) (A) (A) (A) (A) (A)
                 (A) (A) (A) (A) (A) (A) (A) (A) (A) (A) (A) (A)
                 (A) (A) (A) (A) (A) (A) (A) (A) (A) (A) (A) (A)
                 (A) (A) (A) (A) (A) (A) (A) (A) (A) (A) (A) (A)
                 (A) (A) (A) (A) (A) (A) (A) (A) (A) (A) (A) (A)
                 (A) (A) (A) (A) (A) (A) (A) (A) (A) (A) (A) (A)
                 (A) (A) (A) (A) (A) (A) (A) (A) (A) (A) (A) (A)
                 (A) (A) (A) (A) (A) (A) (A) (A) (A) (A) (A) (A)
                 (A) (A) (A) (A) (A) (A) (A) (A) (A) (A) (A) (A)
                 (A) (A) (A) (A) (A) (A) (A) (A) (A) (A) (A) (A)
                 (A) (A) (A) (A) (A) (A) (A) (A) (A) (A) (A) (A)
                 (A) (A) (A) (A) (A) (A)
       Virtual   (A) (A) (A) (A) (A) (A) (A) (A) (A) (A) (A) (A)
                 (A) (A) (A) (A) (A) (A) (A) (A) (A) (A) (A) (A)
                 (A) (A) (A) (A) (A) (A) (A) (A) (A) (A) (A) (A)
                 (A) (A) (A) (A) (A) (A) (A) (A) (A) (A) (A) (A)
                 (A) (A) (A) (A) (A) (A) (A) (A) (A) (A) (A) (A)
                 (A) (A) (A) (A) (A) (A) (A) (A) (A) (A) (A) (A)
                 (A) (A) (A) (A) (A) (A) (A) (A) (A) (A) (A) (A)
                 (A) (A) (A) (A) (A) (A) (A) (A) (A) (A) (A) (A)
                 (A) (A) (A) (A) (A) (A) (A) (A) (A) (A) (A) (A)
                 (A) (A) (A) (A) (A) (A) (A) (A) (A) (A) (A) (A)
                 (A) (A) (A) (A) (A) (A) (A) (A) (A) (A) (A) (A)
                 (A) (A) (A) (A) (A) (A) (A) (A) (A) (A) (A) (A)
                 (A) (A) (A) (A) (A) (A) (A) (A) (A) (A) (A) (A)
                 (A) (A) (A) (A) (A) (A) (A) (A) (A) (A) (A) (A)
                 (A) (A) (A) (A) (A) (A) (A) (A) (A) (A) (A) (A)
                 (A) (A) (A) (A) (A) (A) (A) (A) (A) (A) (A) (A)
                 (A) (A) (A) (A) (A) (A) (A) (A) (A) (A) (A) (A)
                 (A) (A) (A) (A) (A) (A) (A) (A) (A) (A) (A) (A)
                 (A) (A) (A) (A) (A) (A) (A) (A) (A) (A) (A) (A)
                 (A) (A) (A) (A) (A) (A) (A) (A) (A) (A) (A) (A)
                 (A) (A) (A) (A) (A) (A) (A) (A) (A) (A) (A) (A)
                 (A) (A) (A) (A) (A) (A) (A) (A) (A) (A) (A) (A)
                 (A) (A) (A) (A) (A) (A) (A) (A) (A) (A) (A) (A)
                 (A) (A) (A) (A) (A) (A) (A) (A) (A) (A) (A) (A)
                 (A) (A) (A) (A) (A) (A) (A) (A) (A) (A) (A) (A)
                 (A) (A) (A) (A) (A) (A) (A) (A) (A) (A) (A) (A)
                 (A) (A) (A) (A) (A) (A) (A) (A) (A) (A) (A) (A)
                 (A) (A) (A) (A) (A) (A) (A) (A) (A) (A) (A) (A)
                 (A) (A) (A) (A) (A) (A) (A) (A) (A) (A) (A) (A)
                 (A) (A) (A) (A) (A) (A) (A) (A) (A) (A) (A) (A)
                 (A) (A) (A) (A) (A) (A) (A) (A) (A) (A) (A) (A)
                 (A) (A) (A) (A) (A) (A) (A) (A) (A) (A) (A) (A)
                 (A) (A) (A) (A) (A) (A) (A) (A) (A) (A) (A) (A)
                 (A) (A) (A) (A) (A) (A) (A) (A) (A) (A) (A) (A)
                 (A) (A) (A) (A) (A) (A) (A) (A) (A) (A) (A) (A)
                 (A) (A) (A) (A) (A) (A) (A) (A) (A) (A) (A) (A)
                 (A) (A) (A) (A) (A) (A) (A) (A) (A) (A) (A) (A)
                 (A) (A) (A) (A) (A) (A) (A) (A) (A) (A) (A) (A)
                 (A) (A) (A) (A) (A) (A) (A) (A) (A) (A) (A) (A)
                 (A) (A) (A) (A) (A) (A) (A) (A) (A) (A) (A) (A)
                 (A) (A) (A) (A) (A) (A) (A) (A) (A) (A) (A) (A)
                 (A) (A) (A) (A) (A) (A) (A) (A) (A) (A) (A) (A)
                 (A) (A) (A) (A) (A) (A) (A) (A) (A) (A) (A) (A)
                 (A) (A) (A) (A) (A) (A) (A) (A) (A) (A) (A) (A)
                 (A) (A) (A) (A) (A) (A) (A) (A) (A) (A) (A) (A)
                 (A) (A) (A) (A) (A) (A) (A) (A) (A) (A) (A) (A)
                 (A) (A) (A) (A) (A) (A) (A) (A) (A) (A) (A) (A)
                 (A) (A) (A) (A) (A) (A) (A) (A) (A) (A) (A) (A)
                 (A) (A) (A) (A) (A) (A) (A) (A) (A) (A) (A) (A)
                 (A) (A) (A) (A) (A) (A) (A) (A) (A) (A) (A) (A)
                 (A) (A) (A) (A) (A) (A) (A) (A) (A) (A) (A) (A)
                 (A) (A) (A) (A) (A) (A) (A) (A) (A) (A) (A) (A)
                 (A) (A) (A) (A) (A) (A) (A) (A) (A) (A) (A) (A)
                 (A) (A) (A) (A) (A) (A) (A) (A) (A) (A) (A) (A)
                 (A) (A) (A) (A) (A) (A) (A) (A) (A) (A) (A) (A)
                 (A) (A) (A) (A) (A) (A) (A) (A) (A) (A) (A) (A)
                 (A) (A) (A) (A) (A) (A) (A) (A) (A) (A) (A) (A)
                 (A) (A) (A) (A) (A) (A) (A) (A) (A) (A) (A) (A)
                 (A) (A) (A) (A) (A) (A) (A) (A) (A) (A) (A) (A)
                 (A) (A) (A) (A) (A) (A) (A) (A) (A) (A) (A) (A)
                 (A) (A) (A) (A) (A) (A) (A) (A) (A) (A) (A) (A)
                 (A) (A) (A) (A) (A) (A) (A) (A) (A) (A) (A) (A)
                 (A) (A) (A) (A) (A) (A) (A) (A) (A) (A) (A) (A)
                 (A) (A) (A) (A) (A) (A) (A) (A) (A) (A) (A) (A)
                 (A) (A) (A) (A) (A) (A) (A) (A) (A) (A) (A) (A)
                 (A) (A) (A) (A) (A) (A) (A) (A) (A) (A) (A) (A)
                 (A) (A) (A) (A) (A) (A) (A) (A) (A) (A) (A) (A)
                 (A) (A) (A) (A) (A) (A) (A) (A) (A) (A) (A) (A)
                 (A) (A) (A) (A) (A) (A) (A) (A) (A) (A) (A) (A)
                 (A) (A) (A) (A) (A) (A) (A) (A) (A) (A) (A) (A)
                 (A) (A) (A) (A) (A) (A) (A) (A) (A) (A) (A) (A)
                 (A) (A) (A) (A) (A) (A) (A) (A) (A) (A) (A) (A)
                 (A) (A) (A) (A) (A) (A) (A) (A) (A) (A) (A) (A)
                 (A) (A) (A) (A) (A) (A) (A) (A) (A) (A) (A) (A)
                 (A) (A) (A) (A) (A) (A) (A) (A) (A) (A) (A) (A)
                 (A) (A) (A) (A) (A) (A) (A) (A) (A) (A) (A) (A)
                 (A) (A) (A) (A) (A) (A) (A) (A) (A) (A) (A) (A)
                 (A) (A) (A) (A) (A) (A) (A) (A) (A) (A) (A) (A)
                 (A) (A) (A) (A) (A) (A) (A) (A) (A) (A) (A) (A)
                 (A) (A) (A) (A) (A) (A) (A) (A) (A) (A) (A) (A)
                 (A) (A) (A) (A) (A) (A) (A) (A) (A) (A) (A) (A)
                 (A) (A) (A) (A) (A) (A) (A) (A) (A) (A) (A) (A)
                 (A) (A) (A) (A) (A) (A) (A) (A) (A) (A) (A) (A)
                 (A) (A) (A) (A) (A) (A) (A) (A) (A) (A) (A) (A)
                 (A) (A) (A) (A) (A) (A) (A) (A) (A) (A) (A) (A)
                 (A) (A) (A) (A) (A) (A) (A) (A) (A) (A) (A) (A)
                 (A) (A) (A) (A) (A) (A) (A) (A) (A) (A) (A) (A)
                 (A) (A) (A) (A) (A) (A) (A) (A) (A) (A) (A) (A)
                 (A) (A) (A) (A) (A) (A) (A) (A) (A) (A) (A) (A)
                 (A) (A) (A) (A) (A) (A) (A) (A) (A) (A) (A) (A)
                 (A) (A) (A) (A) (A) (A) (A) (A) (A) (A) (A) (A)
                 (A) (A) (A) (A) (A) (A) (A) (A) (A) (A) (A) (A)
                 (A) (A) (A) (A) (A) (A) (A) (A) (A) (A) (A) (A)
                 (A) (A) (A) (A) (A) (A) (A) (A) (A) (A) (A) (A)
                 (A) (A) (A) (A) (A) (A) (A) (A) (A) (A) (A) (A)
                 (A) (A) (A) (A) (A) (A) (A) (A) (A) (A) (A) (A)
                 (A) (A) (A) (A) (A) (A) (A) (A) (A) (A) (A) (A)
                 (A) (A) (A) (A) (A) (A) (A) (A) (A) (A) (A) (A)
                 (A) (A) (A) (A) (A) (A) (A) (A) (A) (A) (A) (A)
                 (A) (A) (A) (A) (A) (A) (A) (A) (A) (A) (A) (A)
                 (A) (A) (A) (A) (A) (A) (A) (A) (A) (A) (A) (A)
                 (A) (A) (A) (A) (A) (A) (A) (A) (A) (A) (A) (A)
                 (A) (A) (A) (A) (A) (A) (A) (A) (A) (A) (A) (A)
                 (A) (A) (A) (A) (A) (A) (A) (A) (A) (A) (A) (A)
                 (A) (A) (A) (A) (A) (A) (A) (A) (A) (A) (A) (A)
                 (A) (A) (A) (A) (A) (A) (A) (A) (A) (A) (A) (A)
                 (A) (A) (A) (A) (A) (A) (A) (A) (A) (A) (A) (A)
                 (A) (A) (A) (A) (A) (A) (A) (A) (A) (A) (A) (A)
                 (A) (A) (A) (A) (A) (A) (A) (A) (A) (A) (A) (A)
                 (A) (A) (A) (A) (A) (A) (A) (A) (A) (A) (A) (A)
                 (A) (A) (A) (A) (A) (A) (A) (A) (A) (A) (A) (A)
                 (A) (A) (A) (A) (A) (A) (A) (A) (A) (A) (A) (A)
                 (A) (A) (A) (A) (A) (A) (A) (A) (A) (A) (A) (A)
                 (A) (A) (A) (A) (A) (A) (A) (A) (A) (A) (A) (A)
                 (A) (A) (A) (A) (A) (A) (A) (A) (A) (A) (A) (A)
                 (A) (A) (A) (A) (A) (A) (A) (A) (A) (A) (A) (A)
                 (A) (A) (A) (A) (A) (A) (A) (A) (A) (A) (A) (A)
                 (A) (A) (A) (A) (A) (A) (A) (A) (A) (A) (A) (A)
                 (A) (A) (A) (A) (A) (A) (A) (A) (A) (A) (A) (A)
                 (A) (A) (A) (A) (A) (A) (A) (A) (A) (A) (A) (A)
                 (A) (A) (A) (A) (A) (A) (A) (A) (A) (A) (A) (A)
                 (A) (A) (A) (A) (A) (A) (A) (A) (A) (A) (A) (A)
                 (A) (A) (A) (A) (A) (A) (A) (A) (A) (A) (A) (A)
                 (A) (A) (A) (A) (A) (A) (A) (A) (A) (A) (A) (A)
                 (A) (A) (A) (A) (A) (A) (A) (A) (A) (A) (A) (A)
                 (A) (A) (A) (A) (A) (A) (A) (A) (A) (A) (A) (A)
                 (A) (A) (A) (A) (A) (A) (A) (A) (A) (A) (A) (A)
                 (A) (A) (A) (A) (A) (A) (A) (A) (A) (A) (A) (A)
                 (A) (A) (A) (A) (A) (A) (A) (A) (A) (A) (A) (A)
                 (A) (A) (A) (A) (A) (A) (A) (A) (A) (A) (A) (A)
                 (A) (A) (A) (A) (A) (A) (A) (A) (A) (A) (A) (A)
                 (A) (A) (A) (A) (A) (A) (A) (A) (A) (A) (A) (A)
                 (A) (A) (A) (A) (A) (A) (A) (A) (A) (A) (A) (A)
                 (A) (A) (A) (A) (A) (A) (A) (A) (A) (A) (A) (A)
                 (A) (A) (A) (A) (A) (A) (A) (A) (A) (A) (A) (A)
                 (A) (A) (A) (A) (A) (A) (A) (A) (A) (A) (A) (A)
                 (A) (A) (A) (A) (A) (A) (A) (A) (A) (A) (A) (A)
                 (A) (A) (A) (A) (A) (A) (A) (A) (A) (A) (A) (A)
                 (A) (A) (A) (A) (A) (A) (A) (A) (A) (A) (A) (A)
                 (A) (A) (A) (A) (A) (A) (A) (A) (A) (A) (A) (A)
                 (A) (A) (A) (A) (A) (A) (A) (A) (A) (A) (A) (A)
                 (A) (A) (A) (A) (A) (A) (A) (A) (A) (A) (A) (A)
                 (A) (A) (A) (A) (A) (A) (A) (A) (A) (A) (A) (A)
                 (A) (A) (A) (A) (A) (A) (A) (A) (A) (A) (A) (A)
                 (A) (A) (A) (A) (A) (A) (A) (A) (A) (A) (A) (A)
                 (A) (A)
   240 initial guesses have been made.
 Convergence on wavefunction:    0.001000000000000
 Iteration     1 Dimension   240 NMult     0 NNew    240
 CISAX will form    60 AO SS matrices at one time.
 New state      1 was old state      6
 New state      2 was old state      5
 New state      3 was old state      9
 New state      4 was old state     12
 New state      5 was old state      2
 New state      6 was old state      1
 New state      7 was old state     21
 New state      8 was old state     14
 New state      9 was old state     11
 New state     10 was old state     51
 New state     11 was old state     16
 New state     12 was old state     19
 New state     13 was old state     20
 New state     14 was old state     18
 New state     15 was old state     35
 New state     16 was old state     39
 New state     17 was old state      3
 New state     18 was old state      4
 New state     19 was old state     77
 New state     20 was old state     24
 New state     21 was old state     45
 New state     22 was old state     96
 New state     23 was old state     67
 New state     24 was old state     41
 New state     25 was old state     61
 New state     26 was old state     76
 New state     27 was old state     73
 New state     28 was old state     37
 New state     29 was old state     57
 New state     30 was old state     27
 New state     31 was old state     32
 New state     32 was old state     33
 New state     33 was old state    105
 New state     34 was old state     28
 New state     35 was old state    121
 New state     36 was old state    115
 New state     37 was old state     22
 New state     38 was old state     23
 New state     39 was old state     38
 New state     40 was old state    185
 New state     41 was old state     95
 New state     42 was old state    109
 New state     43 was old state    129
 New state     44 was old state     29
 New state     45 was old state     40
 New state     46 was old state    143
 New state     47 was old state    145
 New state     48 was old state    147
 New state     49 was old state     30
 New state     50 was old state    117
 New state     51 was old state    137
 New state     52 was old state    148
 New state     53 was old state     59
 New state     54 was old state     31
 New state     55 was old state    157
 New state     57 was old state     58
 New state     58 was old state     48
 New state     59 was old state    220
 New state     60 was old state    132
 Iteration     2 Dimension   360 NMult   240 NNew    120
 New state      8 was old state     12
 New state      9 was old state     13
 New state     11 was old state      9
 New state     12 was old state      8
 New state     13 was old state     17
 New state     14 was old state     19
 New state     15 was old state     18
 New state     16 was old state     14
 New state     17 was old state     20
 New state     18 was old state     16
 New state     19 was old state     15
 New state     20 was old state     23
 New state     21 was old state     24
 New state     22 was old state     21
 New state     23 was old state     22
 New state     24 was old state     25
 New state     25 was old state     26
 New state     26 was old state     27
 New state     27 was old state     29
 New state     28 was old state     31
 New state     29 was old state     35
 New state     30 was old state     32
 New state     31 was old state     36
 New state     32 was old state     30
 New state     33 was old state     37
 New state     34 was old state     33
 New state     35 was old state     34
 New state     36 was old state     39
 New state     37 was old state     38
 New state     38 was old state     45
 New state     39 was old state     43
 New state     43 was old state     47
 New state     44 was old state     46
 New state     45 was old state     44
 New state     46 was old state     50
 New state     47 was old state     51
 New state     48 was old state     49
 New state     49 was old state     48
 New state     50 was old state     56
 New state     51 was old state     55
 New state     52 was old state     54
 New state     53 was old state     52
 New state     54 was old state     60
 New state     55 was old state     59
 New state     56 was old state     57
 New state     57 was old state     53
 New state     59 was old state     73
 New state     60 was old state     64
 Iteration     3 Dimension   480 NMult   360 NNew    120
 New state      8 was old state      9
 New state      9 was old state      8
 New state     10 was old state     11
 New state     11 was old state     12
 New state     12 was old state     10
 New state     14 was old state     15
 New state     15 was old state     16
 New state     16 was old state     14
 New state     17 was old state     25
 New state     18 was old state     26
 New state     19 was old state     29
 New state     20 was old state     17
 New state     21 was old state     19
 New state     22 was old state     18
 New state     23 was old state     20
 New state     24 was old state     22
 New state     25 was old state     27
 New state     26 was old state     24
 New state     27 was old state     23
 New state     28 was old state     34
 New state     29 was old state     31
 New state     30 was old state     33
 New state     31 was old state     35
 New state     32 was old state     30
 New state     33 was old state     28
 New state     34 was old state     32
 No map to state     35
 New state     36 was old state     37
 New state     37 was old state     39
 New state     38 was old state     36
 New state     39 was old state     38
 New state     41 was old state     42
 New state     42 was old state     41
 New state     43 was old state     47
 New state     44 was old state     45
 New state     45 was old state     44
 New state     47 was old state     43
 New state     48 was old state     49
 New state     49 was old state     50
 New state     50 was old state     51
 New state     51 was old state     48
 New state     54 was old state     55
 New state     55 was old state     57
 New state     56 was old state     59
 New state     57 was old state     54
 New state     58 was old state     56
 New state     59 was old state     58
 Iteration     4 Dimension   600 NMult   480 NNew    120
 New state     24 was old state     25
 New state     25 was old state     24
 New state     26 was old state     28
 New state     27 was old state     29
 New state     28 was old state     31
 New state     29 was old state     30
 New state     30 was old state     26
 New state     31 was old state     27
 New state     36 was old state     37
 New state     37 was old state     36
 New state     44 was old state     45
 New state     45 was old state     44
 New state     48 was old state     49
 New state     49 was old state     48
 New state     57 was old state     58
 New state     58 was old state     57
 New state     59 was old state     60
 New state     60 was old state     59
 Iteration     5 Dimension   720 NMult   600 NNew    120
 New state     25 was old state     26
 New state     26 was old state     27
 New state     27 was old state     25
 No map to state     60
 Iteration     6 Dimension   832 NMult   720 NNew    112
 New state     53 was old state     57
 New state     54 was old state     53
 New state     55 was old state     58
 New state     56 was old state     55
 New state     57 was old state     54
 New state     58 was old state     56
 No map to state     60
 Iteration     7 Dimension   924 NMult   832 NNew     92
 New state     42 was old state     44
 New state     43 was old state     42
 New state     44 was old state     43
 New state     47 was old state     53
 New state     48 was old state     56
 New state     49 was old state     47
 New state     50 was old state     55
 No map to state     51
 New state     52 was old state     48
 New state     53 was old state     49
 New state     54 was old state     50
 New state     55 was old state     51
 New state     56 was old state     52
 New state     57 was old state     54
 New state     58 was old state     57
 Davidson failed to converge within maximum sub-space dimensions.
  Restart with updated initial guess:
 Iteration     1 Dimension   190 NMult   924 NNew    190
 New state     43 was old state     44
 New state     44 was old state     43
 Iteration     2 Dimension   310 NMult  1114 NNew    120
 New state     42 was old state     43
 New state     43 was old state     42
 Iteration     3 Dimension   350 NMult  1234 NNew     40
 Iteration     4 Dimension   378 NMult  1274 NNew     28
 Iteration     5 Dimension   392 NMult  1302 NNew     14
 Iteration     6 Dimension   398 NMult  1316 NNew      6
 Iteration     7 Dimension   402 NMult  1322 NNew      4
 Iteration     8 Dimension   406 NMult  1326 NNew      4
 Iteration     9 Dimension   410 NMult  1330 NNew      4
 Iteration    10 Dimension   414 NMult  1334 NNew      4
 Iteration    11 Dimension   418 NMult  1338 NNew      4
 Iteration    12 Dimension   422 NMult  1342 NNew      4
 New state     59 was old state     60
 New state     60 was old state     59
 Iteration    13 Dimension   426 NMult  1346 NNew      4
 Iteration    14 Dimension   430 NMult  1350 NNew      4
 Iteration    15 Dimension   434 NMult  1354 NNew      4
 Iteration    16 Dimension   438 NMult  1358 NNew      4
 Iteration    17 Dimension   442 NMult  1362 NNew      4
 Iteration    18 Dimension   444 NMult  1366 NNew      2
 Iteration    19 Dimension   446 NMult  1368 NNew      2
 Iteration    20 Dimension   448 NMult  1370 NNew      2
 Iteration    21 Dimension   450 NMult  1372 NNew      2
 ***********************************************************************
 Excited states from <AA,BB:AA,BB> singles matrix:
 ***********************************************************************
 
 Ground to excited state transition densities written to RWF  633
 Ground to excited state transition electric dipole moments (Au):
       state          X           Y           Z        Dip. S.      Osc.
         1         0.0244     -1.1091      0.0127      1.2308      0.1197
         2         0.2703     -0.0205     -0.7915      0.7000      0.0682
         3         4.1156      0.0149      0.1812     16.9713      1.6617
         4        -0.0132      2.2152     -0.0020      4.9075      0.4855
         5        -2.5310     -0.0002      0.1574      6.4310      0.6886
         6         0.0076     -0.4360      0.0067      0.1902      0.0218
         7        -0.5296     -0.0069     -0.4452      0.4787      0.0549
         8         0.2985     -0.0015     -0.2255      0.1399      0.0162
         9        -0.0428     -0.0058      0.0329      0.0030      0.0003
        10        -0.0781     -0.0025      0.0588      0.0096      0.0011
        11        -0.0001     -0.3305      0.0004      0.1092      0.0127
        12         0.0003     -0.5411     -0.0001      0.2928      0.0340
        13         0.0026     -1.0807      0.0022      1.1680      0.1407
        14        -0.5397     -0.0058     -0.4184      0.4664      0.0563
        15         0.0005     -0.9158      0.0002      0.8386      0.1015
        16         0.0018      0.0661      0.0004      0.0044      0.0005
        17        -0.1356      0.0027     -0.0301      0.0193      0.0023
        18         0.0007      0.3978     -0.0001      0.1583      0.0192
        19         0.1741      0.0006      0.2405      0.0882      0.0107
        20        -1.4218      0.0007     -0.0710      2.0266      0.2492
        21         0.0006      1.1655     -0.0001      1.3585      0.1678
        22         0.1996     -0.0168      0.1437      0.0608      0.0075
        23        -0.0076     -0.4806     -0.0045      0.2310      0.0286
        24        -0.3085      0.0022      0.4108      0.2640      0.0328
        25         0.6263     -0.0023      0.3328      0.5030      0.0626
        26         0.0033      0.8689      0.0022      0.7550      0.0940
        27        -0.0058      0.2443     -0.0046      0.0597      0.0074
        28        -0.0066      0.1679     -0.0050      0.0283      0.0035
        29         0.5703      0.0012      0.2815      0.4045      0.0505
        30        -0.0125     -0.0670      0.0106      0.0048      0.0006
        31        -0.2541      0.0004      0.5588      0.3769      0.0471
        32         0.1980     -0.0062     -0.1153      0.0525      0.0067
        33        -0.0009     -0.6039      0.0007      0.3647      0.0463
        34         0.0115     -1.0858     -0.0146      1.1793      0.1512
        35         0.6450      0.0173     -0.9397      1.2993      0.1667
        36        -0.0907     -0.0008     -0.3069      0.1024      0.0133
        37         0.0008      0.0181      0.0009      0.0003      0.0000
        38        -2.1789     -0.0024      0.2151      4.7940      0.6263
        39         0.0046     -0.9027     -0.0009      0.8148      0.1071
        40         0.4369     -0.0011      0.3355      0.3034      0.0401
        41        -0.0025     -0.2145     -0.0019      0.0460      0.0061
        42         0.1716     -0.0013      0.0795      0.0358      0.0047
        43         0.0008      0.2515      0.0002      0.0633      0.0084
        44         0.0053     -0.1733      0.0026      0.0301      0.0040
        45         0.3092      0.0043      0.1645      0.1227      0.0164
        46         0.0064     -0.0169     -0.0022      0.0003      0.0000
        47        -0.7884     -0.0035     -0.0848      0.6287      0.0844
        48         0.0012      0.6973     -0.0100      0.4864      0.0654
        49        -0.3913      0.0123      0.7852      0.7697      0.1035
        50        -0.0111      0.8427     -0.0171      0.7106      0.0958
        51         0.9178      0.0141      0.8322      1.5351      0.2071
        52         0.0053     -0.8440      0.0046      0.7124      0.0965
        53         0.6438      0.0053      0.5652      0.7340      0.0995
        54         1.3225      0.0024      0.0259      1.7496      0.2386
        55        -0.0051      0.9206      0.0012      0.8476      0.1158
        56         0.5394      0.0004      0.5807      0.6282      0.0861
        57         0.0001     -0.7545      0.0014      0.5693      0.0784
        58        -0.5966     -0.0007     -0.2332      0.4103      0.0567
        59         0.9488      0.0239      0.7541      1.4695      0.2049
        60        -0.0527      0.4093     -0.0428      0.1722      0.0240
 Ground to excited state transition velocity dipole moments (Au):
       state          X           Y           Z        Dip. S.      Osc.
         1        -0.0035      0.1585     -0.0020      0.0252      0.1149
         2        -0.0399      0.0030      0.1223      0.0166      0.0756
         3        -0.5986     -0.0022     -0.0281      0.3591      1.6299
         4         0.0019     -0.3257      0.0003      0.1061      0.4767
         5         0.4018      0.0000     -0.0249      0.1621      0.6728
         6        -0.0013      0.0742     -0.0011      0.0055      0.0214
         7         0.0913      0.0012      0.0724      0.0136      0.0526
         8        -0.0502      0.0000      0.0333      0.0036      0.0139
         9         0.0072     -0.0008     -0.0049      0.0001      0.0003
        10         0.0117      0.0004     -0.0093      0.0002      0.0009
        11         0.0000      0.0566     -0.0001      0.0032      0.0123
        12         0.0000      0.0923      0.0000      0.0085      0.0326
        13        -0.0005      0.1929     -0.0004      0.0372      0.1373
        14         0.0941      0.0010      0.0789      0.0151      0.0555
        15        -0.0001      0.1696      0.0000      0.0287      0.1056
        16        -0.0004     -0.0135     -0.0001      0.0002      0.0007
        17         0.0248     -0.0005      0.0057      0.0006      0.0024
        18        -0.0001     -0.0724      0.0000      0.0052      0.0192
        19        -0.0320     -0.0001     -0.0437      0.0029      0.0107
        20         0.2592     -0.0001      0.0139      0.0674      0.2435
        21        -0.0001     -0.2142      0.0000      0.0459      0.1650
        22        -0.0372      0.0031     -0.0277      0.0022      0.0078
        23         0.0014      0.0861      0.0009      0.0074      0.0267
        24         0.0580     -0.0004     -0.0806      0.0099      0.0353
        25        -0.1192      0.0004     -0.0636      0.0183      0.0652
        26        -0.0006     -0.1651     -0.0004      0.0273      0.0973
        27         0.0011     -0.0475      0.0009      0.0023      0.0080
        28         0.0012     -0.0323      0.0010      0.0010      0.0037
        29        -0.1060     -0.0002     -0.0537      0.0141      0.0503
        30         0.0024      0.0129     -0.0022      0.0002      0.0006
        31         0.0495     -0.0001     -0.1133      0.0153      0.0543
        32        -0.0345      0.0011      0.0227      0.0017      0.0060
        33         0.0001      0.1110     -0.0001      0.0123      0.0432
        34        -0.0022      0.2127      0.0030      0.0452      0.1568
        35        -0.1268     -0.0033      0.1927      0.0532      0.1844
        36         0.0171      0.0002      0.0562      0.0034      0.0118
        37        -0.0002     -0.0035     -0.0002      0.0000      0.0000
        38         0.4242      0.0005     -0.0418      0.1817      0.6180
        39        -0.0009      0.1760      0.0002      0.0310      0.1048
        40        -0.0828      0.0002     -0.0704      0.0118      0.0397
        41         0.0005      0.0401      0.0004      0.0016      0.0054
        42        -0.0320      0.0003     -0.0143      0.0012      0.0041
        43        -0.0002     -0.0473      0.0000      0.0022      0.0075
        44        -0.0010      0.0315     -0.0006      0.0010      0.0033
        45        -0.0569     -0.0008     -0.0364      0.0046      0.0152
        46        -0.0013      0.0024      0.0004      0.0000      0.0000
        47         0.1594      0.0007      0.0213      0.0259      0.0856
        48        -0.0002     -0.1418      0.0021      0.0201      0.0665
        49         0.0795     -0.0025     -0.1631      0.0329      0.1088
        50         0.0022     -0.1691      0.0033      0.0286      0.0944
        51        -0.1826     -0.0028     -0.1589      0.0586      0.1931
        52        -0.0010      0.1664     -0.0009      0.0277      0.0909
        53        -0.1266     -0.0010     -0.1070      0.0275      0.0901
        54        -0.2688     -0.0005     -0.0033      0.0723      0.2356
        55         0.0010     -0.1879     -0.0003      0.0353      0.1149
        56        -0.1178     -0.0001     -0.1147      0.0270      0.0878
        57        -0.0001      0.1623     -0.0003      0.0264      0.0850
        58         0.1244      0.0002      0.0450      0.0175      0.0562
        59        -0.1932     -0.0048     -0.1557      0.0616      0.1964
        60         0.0107     -0.0815      0.0088      0.0068      0.0218
 Ground to excited state transition magnetic dipole moments (Au):
       state          X           Y           Z
         1        -0.0298      4.6496      0.0011
         2         2.3862      0.0673     -1.6033
         3         0.7475     -0.0299     -3.4244
         4         0.0023      0.6490      0.0092
         5         0.1857     -0.0004      3.6069
         6         0.0001      0.5639     -0.0115
         7        -0.0118      0.0084      0.8077
         8         0.1148     -0.0821     -0.5323
         9        -0.0163     -0.5839      0.0769
        10         0.0243      0.0068      0.1974
        11        -0.0004      0.3999      0.0001
        12         0.0000     -0.2078     -0.0006
        13        -0.0017      1.1898      0.0100
        14         0.4661      0.0043     -1.9631
        15        -0.0013     -0.2909      0.0005
        16         0.0123      1.8935      0.0031
        17        -0.6311      0.0384     -0.2457
        18         0.0029      1.6867      0.0015
        19        -1.0415      0.0027      0.1603
        20         1.0825     -0.0001     -3.7463
        21        -0.0024     -0.5884      0.0030
        22         0.4740      0.0142      0.9592
        23        -0.0139      0.4436     -0.0335
        24         1.6862     -0.0008     -0.4317
        25         1.5617      0.0028      0.5918
        26         0.0077      0.1962      0.0040
        27        -0.0174      0.5507     -0.0065
        28        -0.0166     -0.8918     -0.0113
        29         1.2615     -0.0070      0.7353
        30        -0.0145      0.1172      0.0107
        31        -0.0461     -0.0041      0.7329
        32         0.6220     -0.0071     -1.3006
        33        -0.0059     -0.8389      0.0122
        34        -0.0264      0.3721     -0.0037
        35        -1.7189     -0.0047     -0.0859
        36        -1.4705     -0.0019     -0.1032
        37         0.0047     -0.8524      0.0010
        38         0.5363      0.0007      3.2310
        39        -0.0021      0.2453     -0.0048
        40         0.2578      0.0011      0.8607
        41        -0.0013      0.2798     -0.0035
        42         0.4828     -0.0007     -0.5311
        43         0.0022      0.2233     -0.0035
        44        -0.0072      0.4623      0.0599
        45        -0.3562     -0.0093      3.2825
        46        -0.0068     -1.2255     -0.0154
        47         0.8013     -0.0072      1.0327
        48         0.0048     -0.2785     -0.0141
        49         0.0129     -0.0027      1.3911
        50        -0.0096      0.5017     -0.0253
        51         0.5310      0.0064      0.9891
        52        -0.0006      1.2957      0.0157
        53        -0.2776     -0.0097      2.0290
        54        -1.0174     -0.0024     -2.3781
        55         0.0045     -0.8112      0.0137
        56         0.6331      0.0000     -0.5443
        57         0.0012     -0.1835      0.0068
        58         0.4351     -0.0026     -1.3682
        59        -0.4318     -0.0698     -0.3170
        60         0.0231     -1.2252      0.0160
 Ground to excited state transition velocity quadrupole moments (Au):
       state          XX          YY          ZZ          XY          XZ          YZ
         1        -5.0731      2.3499     -0.0823      0.0323     -0.2414      0.0124
         2        -0.0572      0.0360     -0.0028     -3.3376     -0.0038     -0.6645
         3         0.0048     -0.0179      0.0032     -2.4588      0.0013      0.3423
         4        -9.4146     -0.4839      0.8303      0.0019     -0.1000     -0.0027
         5         0.0015     -0.0001     -0.0001     -1.1880     -0.0002      0.4022
         6         0.9467     -0.3704     -0.1648      0.0081      0.1722      0.0065
         7         0.0155     -0.0063     -0.0026     -0.5314      0.0030     -0.4394
         8         0.1119     -0.0863     -0.0006     -0.0994      0.1254      0.2281
         9         0.7773     -0.6100      0.0006      0.0138      0.8661     -0.0334
        10         0.0003      0.0045     -0.0024     -0.1138     -0.0033     -0.1626
        11         0.6306      0.1984     -0.2619      0.0017      0.1875      0.0007
        12         1.3705     -0.6878     -0.1856      0.0000     -0.0030      0.0003
        13         1.8971     -0.7856     -0.4875      0.0049     -0.7353      0.0002
        14         0.0115     -0.0046     -0.0029     -0.9025     -0.0030     -0.0529
        15         3.8779     -1.1533     -0.6814      0.0000      0.3864      0.0001
        16        -0.9075     -0.4522      0.2624      0.0021      0.2029     -0.0013
        17        -0.0250     -0.0070      0.0063     -0.1457      0.0040      0.0603
        18        -1.5053      0.3082      0.4819      0.0008      0.6310     -0.0009
        19         0.0010      0.0007      0.0009      0.0550      0.0017      0.3857
        20         0.0028      0.0007     -0.0004     -2.6624     -0.0005     -0.4132
        21         1.5224      0.4629      0.1626      0.0017      0.5368      0.0002
        22        -0.0424     -0.0137      0.0111      0.7046     -0.0046     -0.1180
        23        -1.2912     -0.4153      0.3749     -0.0254     -0.1061      0.0026
        24         0.0034      0.0004     -0.0003     -0.5739     -0.0004     -0.5919
        25        -0.0138     -0.0075      0.0025      0.9065      0.0035      0.1015
        26         1.4990      0.4396     -0.0224      0.0050     -0.8055      0.0014
        27        -0.7483     -0.6812      0.2505     -0.0057     -0.4973      0.0021
        28         2.3869      0.6658     -0.5630     -0.0021     -0.9222      0.0101
        29         0.0273      0.0081     -0.0071      0.1763     -0.0342     -0.8001
        30         0.1502      0.1408     -0.0599     -0.0091     -1.6582      0.0128
        31        -0.0011     -0.0041      0.0004     -0.3927      0.0394      0.0854
        32        -0.0007     -0.0036     -0.0014      0.4918      0.0078      0.2592
        33         0.0952     -0.4656     -0.1708     -0.0024      0.7623     -0.0024
        34        -2.2569      0.2882     -0.0756      0.0311      2.4906      0.0006
        35         0.0290     -0.0055      0.0009      2.0959     -0.0382      0.0504
        36        -0.0024      0.0029     -0.0008     -1.1097      0.0015     -0.6650
        37        -0.1211      0.7637     -0.3036      0.0052      0.3093      0.0015
        38         0.0116      0.0018      0.0007      0.8583      0.0001      1.1091
        39         6.2380      1.3216      0.1307     -0.0012     -0.7791     -0.0022
        40        -0.0053     -0.0015     -0.0015      0.2848     -0.0047     -0.1696
        41        -1.0037     -0.2355     -0.1785     -0.0023     -0.9090      0.0014
        42         0.0028     -0.0005      0.0032     -0.3526      0.0004      0.5884
        43        -0.3393      0.0464     -0.5821     -0.0016     -0.1003      0.0028
        44         1.1286     -1.0830      0.1093     -0.0122     -0.6993     -0.0044
        45        -0.0207      0.0200     -0.0027     -0.6009      0.0137     -0.2307
        46         1.0877      0.0883     -0.3323     -0.0164      1.6809     -0.0059
        47         0.0363      0.0027     -0.0025      2.0132      0.0095      0.9729
        48        -3.3575     -0.4685     -0.0588      0.0181      0.3455      0.0117
        49        -0.0225     -0.0067     -0.0041     -0.4896     -0.0004     -0.3954
        50         3.5793     -0.2535     -0.5034     -0.0249     -1.3259     -0.0013
        51         0.0659     -0.0051     -0.0084      1.7005     -0.0188      0.0927
        52        -2.9273      1.0418     -0.2659      0.0165     -2.4053     -0.0022
        53         0.0207     -0.0074      0.0023      1.8656      0.0188     -0.4606
        54        -0.0173      0.0017     -0.0013     -1.0137     -0.0008      0.4457
        55        -2.3043     -0.2592     -0.2805      0.0085      0.4793     -0.0026
        56         0.0058     -0.0024      0.0007      2.7326      0.0013      1.3961
        57        -5.9473      2.2789     -0.3573      0.0122     -0.5104     -0.0018
        58        -0.0218      0.0089     -0.0030     -2.2959     -0.0015      0.7966
        59        -0.0866      0.0986     -0.0791     -2.9572     -0.0082      2.1024
        60        -1.4798      1.6408     -1.3286      0.1661     -0.0413     -0.1211
 <0|del|b> * <b|rxdel|0> + <0|del|b> * <b|delr+rdel|0>
 Rotatory Strengths (R) in cgs (10**-40 erg-esu-cm/Gauss)
       state          XX          YY          ZZ    R(velocity)    E-M Angle
         1      1878.7584      0.2985   1693.8217   1190.9595        1.17
         2     -1462.2060    347.2856   -293.9679   -469.6294      141.86
         3       397.7189  -1505.0928   -583.7342   -563.7027       99.63
         4      -581.4304      0.0037   -426.1151   -335.8473      178.98
         5      -132.8116    256.7908   -191.5595    -22.5268       90.60
         6        59.8371      0.0259    112.4585     57.4405        1.08
         7        41.1267    114.5825     80.2754     78.6615       52.43
         8       -42.8996    -64.5084     11.6061    -31.9340      135.07
         9         1.4350     -1.3583     -0.2039     -0.0424       90.00
        10        -1.5673     -9.1732      4.4633     -2.0924      121.22
        11        24.4309      0.0002     67.5582     30.6631       90.00
        12       -38.3448     -0.0001    -39.4713    -25.9387       90.00
        13       726.6647     -0.0028    171.5952    299.4190        0.61
        14      -441.6696    -87.5153     95.4175   -144.5892      116.62
        15      -223.6952      0.0001     31.5737    -64.0405      179.71
        16       -44.4852     -0.0076    -55.1730    -33.2219      178.88
        17        -4.3818    -28.6139    -33.3632    -22.1196      171.46
        18      -148.2353     -0.0004   -325.4577   -157.8978      179.93
        19       -18.2287     31.6664     88.3172     33.9183       62.59
        20      -171.2281    303.6039    743.1387    291.8382       76.96
        21       459.9028      0.0004     21.0980    160.3337        0.35
        22       -87.6161    -38.6811    -41.9462    -56.0811      152.56
        23        90.0991     -0.0438     55.3308     48.4620        5.61
        24       153.8708     98.6894    250.7584    167.7729       39.91
        25      -180.4427   -337.6704   -329.7283   -282.6138      172.68
        26      -313.1533     -0.0098    190.4893    -40.8913      177.72
        27       -94.1187     -0.0333     -4.8317    -32.9946      179.37
        28        -1.8798     -0.0317    110.4787     36.1891        4.04
        29       -92.4354   -148.9995   -412.4689   -217.9679      176.61
        30        43.1841     -0.0892    -37.6101      1.8283       22.78
        31       -72.6240   -236.6433    -12.2788   -107.1820      160.01
        32       -34.1650   -132.1152    -23.2543    -63.1782      148.90
        33      -330.3806     -0.0060    -15.8126   -115.3997      179.17
        34      -828.2080     -0.0867   1119.4566     97.0540        3.72
        35       711.3398   -383.6159    412.5063    246.7434       59.51
        36      -123.8335     36.3985    -25.0324    -37.4891      110.94
        37         7.4397     -0.0006      3.4783      3.6391        3.90
        38      -308.4618   1080.2951   -438.3568    111.1589       86.20
        39       323.3617      0.0057   -168.4914     51.6253        1.19
        40      -143.7096    -85.2782    -63.1005    -97.3627      147.03
        41        84.9692     -0.0008    -44.9754     13.3310        1.66
        42        22.5025    -56.4782      6.0171     -9.3195      108.19
        43       -27.1917     -0.0014    -10.3392    -12.5108      179.00
        44        64.6840     -0.0561    -13.2000     17.1427        8.52
        45      -172.6972   -191.0737     12.6241   -117.0489      116.42
        46       -12.4184      0.0301      1.9441     -3.4814      150.43
        47       113.8813    459.7599    -48.0194    175.2073       44.58
        48       155.2032     -0.1260    -16.6607     46.1389        3.90
        49      -257.6943   -590.8897     56.8847   -263.8998      153.48
        50      -540.8298     -0.0438    243.7607    -99.0376      178.21
        51      -746.9996     -1.5093   -139.8041   -296.1044      159.25
        52      1071.9094      0.0063   -321.3958    250.1733        1.04
        53      -724.7631    132.0243    -40.2977   -211.0121      122.43
        54        19.4932    273.5076    679.9322    324.3110       66.13
        55       418.4567      0.0012    107.6304    175.3628        1.04
        56      -432.0392    235.5575    154.7100    -13.9239       95.07
        57        90.7989      0.0027   -192.7875    -33.9953      177.95
        58      -281.0139    332.2566    -76.6422     -8.4665       92.25
        59       862.4165  -1240.7273    828.4329    150.0407        6.82
        60       165.9149     -4.0072    177.1862    113.0313        8.34
 1/2[<0|r|b>*<b|rxdel|0> + (<0|rxdel|b>*<b|r|0>)*]
 Rotatory Strengths (R) in cgs (10**-40 erg-esu-cm/Gauss)
       state          XX          YY          ZZ     R(length)
         1         0.5136   3646.6936     -0.0095   1215.7326
         2      -456.0295      0.9774   -897.3910   -450.8144
         3     -2175.4162      0.3148    438.8659   -578.7452
         4         0.0214  -1016.7428      0.0131   -338.9028
         5       332.3510     -0.0001   -401.6043    -23.0845
         6        -0.0004    173.8830      0.0542     57.9790
         7        -4.4374      0.0410    254.2766     83.2934
         8       -24.2231     -0.0893    -84.8776    -36.3966
         9        -0.4937     -2.4124     -1.7898     -1.5653
        10         1.3403      0.0122     -8.2075     -2.2850
        11         0.0000     93.4500      0.0000     31.1500
        12         0.0000    -79.4972      0.0000    -26.4991
        13         0.0031    909.3284     -0.0152    303.1054
        14       177.8664      0.0176   -580.8770   -134.3310
        15         0.0005   -188.3562     -0.0001    -62.7853
        16        -0.0152    -88.5053     -0.0008    -29.5071
        17       -60.5001     -0.0721     -5.2312    -21.9345
        18        -0.0014   -474.4874      0.0001   -158.1629
        19       128.2293     -0.0012    -27.2616     33.6555
        20      1088.3902      0.0000   -188.0865    300.1012
        21         0.0010    484.9850      0.0001    161.6620
        22       -66.9013      0.1685    -97.4940    -54.7423
        23        -0.0749    150.7402     -0.1063     50.1863
        24       367.8987      0.0013    125.3962    164.4321
        25      -691.6673      0.0046   -139.2915   -276.9847
        26        -0.0180   -120.5333     -0.0062    -40.1858
        27        -0.0718    -95.1308     -0.0211    -31.7412
        28        -0.0772    105.8888     -0.0398     35.2573
        29      -508.7607      0.0061   -146.3859   -218.3802
        30        -0.1288      5.5527     -0.0806      1.7811
        31        -8.2926      0.0013   -289.6237    -99.3050
        32       -87.0945     -0.0309   -106.0911    -64.4055
        33        -0.0039   -358.2401     -0.0062   -119.4167
        34         0.2140    285.7042     -0.0386     95.2932
        35       783.9891      0.0577    -57.0756    242.3237
        36       -94.3605     -0.0010    -22.3937    -38.9184
        37        -0.0027     10.8891     -0.0006      3.6286
        38       826.3867      0.0012   -491.4645    111.6411
        39         0.0069    156.5974     -0.0030     52.2004
        40       -79.6401      0.0008   -204.1858    -94.6084
        41        -0.0023     42.4518     -0.0048     14.1482
        42       -58.5869     -0.0007     29.8504     -9.5791
        43        -0.0012    -39.7244      0.0004    -13.2417
[...]
 Alpha virt. eigenvalues --    2.93063   2.93469   2.94072   2.94162   2.94753
 Alpha virt. eigenvalues --    2.95221   2.95328   2.96012   2.96044   2.96484
 Alpha virt. eigenvalues --    2.96967   2.97226   2.97826   2.98132   2.98987
 Alpha virt. eigenvalues --    3.00167   3.00815   3.00962   3.01179   3.01640
 Alpha virt. eigenvalues --    3.01816   3.02531   3.03274   3.03542   3.03578
 Alpha virt. eigenvalues --    3.03707   3.04527   3.04893   3.05418   3.07582
 Alpha virt. eigenvalues --    3.07723   3.07723   3.08774   3.09798   3.09940
 Alpha virt. eigenvalues --    3.14454   3.15518   3.18952   3.19158   3.58335
 Alpha virt. eigenvalues --    3.58549   3.58912   3.59241   3.59945   3.61396
 Alpha virt. eigenvalues --    3.62490   3.62668   3.63173   3.63461   3.66053
 Alpha virt. eigenvalues --    3.66096   3.66720   3.66725   3.67117   3.67184
 Alpha virt. eigenvalues --    3.67731   3.67733
          Condensed to atoms (all electrons):
 Mulliken charges:
               1
     1  C    0.008959
     2  C    0.009804
     3  C   -0.051458
     4  C    0.030083
     5  C   -0.019305
     6  C    0.005323
     7  C    0.020760
     8  C   -0.019312
     9  C    0.030091
    10  C    0.020770
    11  C    0.005329
    12  C    0.008960
    13  C    0.009803
    14  C   -0.051465
    15  C   -0.120951
    16  C   -0.120934
    17  C   -0.079249
    18  C   -0.079216
    19  C    0.007344
    20  C   -0.056073
    21  C    0.075272
    22  C   -0.084588
    23  C    0.035626
    24  C    0.007338
    25  C   -0.056073
    26  C    0.075267
    27  C   -0.084611
    28  C    0.035655
    29  C    0.017451
    30  C    0.011472
    31  C   -0.003609
    32  C    0.023585
    33  C    0.008888
    34  C   -0.000226
    35  C    0.000032
    36  C    0.008527
    37  C   -0.086251
    38  C    0.008886
    39  C   -0.000218
    40  C    0.000026
    41  C    0.008545
    42  C    0.017457
    43  C    0.011477
    44  C   -0.003630
    45  C    0.023594
    46  C   -0.086244
    47  C    0.002496
    48  C   -0.054188
    49  C    0.075082
    50  C   -0.091931
    51  C    0.039933
    52  C    0.017157
    53  C    0.007052
    54  C    0.014585
    55  C   -0.038345
    56  C    0.071273
    57  C   -0.010321
    58  C    0.000426
    59  C    0.011384
    60  C    0.002489
    61  C   -0.054174
    62  C    0.075051
    63  C   -0.091955
    64  C    0.039937
    65  C    0.017155
    66  C    0.007057
    67  C    0.014597
    68  C   -0.038367
    69  C    0.071294
    70  C   -0.010312
    71  C    0.000417
    72  C    0.011369
    73  C   -0.018958
    74  C   -0.018990
    75  C   -0.018947
    76  C   -0.018937
    77  C   -0.053280
    78  C   -0.072525
    79  C   -0.053262
    80  C   -0.072497
    81  C   -0.056500
    82  C   -0.075185
    83  C   -0.056504
    84  C   -0.075196
    85  C   -0.010773
    86  C   -0.001802
    87  C   -0.017120
    88  C    0.002344
    89  C    0.045397
    90  C   -0.015888
    91  C   -0.000283
    92  C   -0.014553
    93  C    0.008190
    94  C    0.045741
    95  C    0.044500
    96  C    0.002155
    97  C   -0.017090
    98  C   -0.001880
    99  C   -0.011207
   100  C   -0.016794
   101  C   -0.000774
   102  C   -0.014710
   103  C    0.007262
   104  C    0.043675
   105  C    0.044498
   106  C    0.002214
   107  C   -0.017093
   108  C   -0.001882
   109  C   -0.011252
   110  C   -0.016788
   111  C   -0.000778
   112  C   -0.014710
   113  C    0.007260
   114  C    0.043679
   115  C    0.045370
   116  C    0.002346
   117  C   -0.017115
   118  C   -0.001800
   119  C   -0.010761
   120  C   -0.015891
   121  C   -0.000284
   122  C   -0.014555
   123  C    0.008177
   124  C    0.045715
   125  H    0.019892
   126  H    0.020646
   127  H    0.007658
   128  H   -0.019179
   129  H   -0.019186
   130  H    0.019891
   131  H    0.020645
   132  H    0.007668
   133  H    0.076608
   134  H    0.076605
   135  H    0.003163
   136  H    0.015394
   137  H    0.013631
   138  H   -0.023601
   139  H    0.022229
   140  H    0.014448
   141  H    0.017823
   142  H   -0.001271
   143  H    0.082165
   144  H    0.022237
   145  H    0.014450
   146  H    0.017822
   147  H   -0.001273
   148  H    0.003169
   149  H    0.015396
   150  H    0.013643
   151  H   -0.023606
   152  H    0.082161
   153  H    0.003733
   154  H    0.017550
   155  H    0.017500
   156  H    0.027254
   157  H   -0.036278
   158  H    0.009553
   159  H    0.016718
   160  H   -0.002838
   161  H    0.003746
   162  H    0.017548
   163  H    0.017500
   164  H    0.027263
   165  H   -0.036288
   166  H    0.009551
   167  H    0.016723
   168  H   -0.002833
   169  H    0.008967
   170  H    0.022112
   171  H    0.018773
   172  H    0.008484
   173  H   -0.022300
   174  H   -0.005176
   175  H    0.017158
   176  H    0.016357
   177  H    0.004303
   178  H   -0.014790
   179  H   -0.022595
   180  H    0.008324
   181  H    0.018723
   182  H    0.022069
   183  H    0.009261
   184  H   -0.005165
   185  H    0.017156
   186  H    0.016338
   187  H    0.004550
   188  H   -0.012389
   189  H   -0.022584
   190  H    0.008309
   191  H    0.018717
   192  H    0.022066
   193  H    0.009273
   194  H   -0.005170
   195  H    0.017158
   196  H    0.016339
   197  H    0.004550
   198  H   -0.012402
   199  H   -0.022310
   200  H    0.008486
   201  H    0.018775
   202  H    0.022112
   203  H    0.008966
   204  H   -0.005174
   205  H    0.017158
   206  H    0.016359
   207  H    0.004313
   208  H   -0.014765
 Sum of Mulliken charges =   0.00000
 Mulliken charges with hydrogens summed into heavy atoms:
               1
     1  C    0.028851
     2  C    0.030450
     3  C   -0.043800
     4  C    0.030083
     5  C   -0.019305
     6  C   -0.013855
     7  C    0.020760
     8  C   -0.019312
     9  C    0.030091
    10  C    0.020770
    11  C   -0.013857
    12  C    0.028851
    13  C    0.030448
    14  C   -0.043797
    15  C   -0.120951
    16  C   -0.120934
    17  C   -0.002641
    18  C   -0.002611
    19  C    0.007344
    20  C   -0.056073
    21  C    0.075272
    22  C   -0.084588
    23  C    0.035626
    24  C    0.007338
    25  C   -0.056073
    26  C    0.075267
    27  C   -0.084611
    28  C    0.035655
    29  C    0.020614
    30  C    0.026866
    31  C    0.010022
    32  C   -0.000016
    33  C    0.031118
    34  C    0.014222
    35  C    0.017855
    36  C    0.007255
    37  C   -0.004085
    38  C    0.031124
    39  C    0.014231
    40  C    0.017848
    41  C    0.007272
    42  C    0.020626
    43  C    0.026873
    44  C    0.010014
    45  C   -0.000011
    46  C   -0.004083
    47  C    0.002496
    48  C   -0.054188
    49  C    0.075082
    50  C   -0.091931
    51  C    0.039933
    52  C    0.020891
    53  C    0.024602
    54  C    0.032085
    55  C   -0.011092
    56  C    0.034995
    57  C   -0.000768
    58  C    0.017144
    59  C    0.008546
    60  C    0.002489
    61  C   -0.054174
    62  C    0.075051
    63  C   -0.091955
    64  C    0.039937
    65  C    0.020901
    66  C    0.024605
    67  C    0.032098
    68  C   -0.011104
    69  C    0.035007
    70  C   -0.000761
    71  C    0.017141
    72  C    0.008536
    73  C   -0.018958
    74  C   -0.018990
    75  C   -0.018947
    76  C   -0.018937
    77  C   -0.053280
    78  C   -0.072525
    79  C   -0.053262
    80  C   -0.072497
    81  C   -0.056500
    82  C   -0.075185
    83  C   -0.056504
    84  C   -0.075196
    85  C   -0.001806
    86  C    0.020310
    87  C    0.001653
    88  C    0.010828
    89  C    0.023097
    90  C   -0.021065
    91  C    0.016875
    92  C    0.001804
    93  C    0.012494
    94  C    0.030951
    95  C    0.021905
    96  C    0.010479
    97  C    0.001634
    98  C    0.020189
    99  C   -0.001946
   100  C   -0.021958
   101  C    0.016382
   102  C    0.001628
   103  C    0.011812
   104  C    0.031286
   105  C    0.021913
   106  C    0.010523
   107  C    0.001624
   108  C    0.020184
   109  C   -0.001979
   110  C   -0.021958
   111  C    0.016380
   112  C    0.001629
   113  C    0.011810
   114  C    0.031277
   115  C    0.023060
   116  C    0.010832
   117  C    0.001660
   118  C    0.020312
   119  C   -0.001795
   120  C   -0.021065
   121  C    0.016874
   122  C    0.001804
   123  C    0.012489
   124  C    0.030949
 Electronic spatial extent (au):  <R**2>=         148102.9850
 Charge=              0.0000 electrons
 Dipole moment (field-independent basis, Debye):
    X=              0.0007    Y=             -2.3186    Z=             -0.0010  Tot=              2.3186
 Quadrupole moment (field-independent basis, Debye-Ang):
   XX=           -645.2276   YY=           -640.4855   ZZ=           -671.4660
   XY=              0.0017   XZ=              6.1450   YZ=              0.0017
 Traceless Quadrupole moment (field-independent basis, Debye-Ang):
   XX=              7.1655   YY=             11.9076   ZZ=            -19.0730
   XY=              0.0017   XZ=              6.1450   YZ=              0.0017
 Octapole moment (field-independent basis, Debye-Ang**2):
  XXX=              0.0404  YYY=             67.3581  ZZZ=             -0.0457  XYY=              0.0310
  XXY=           -165.8753  XXZ=             -0.0402  XZZ=             -0.0091  YZZ=             56.5865
  YYZ=             -0.0004  XYZ=            -47.4039
 Hexadecapole moment (field-independent basis, Debye-Ang**3):
 XXXX=        -145032.5073 YYYY=         -29591.7740 ZZZZ=         -20690.1654 XXXY=              0.5140
 XXXZ=            597.4390 YYYX=             -0.0057 YYYZ=             -0.0195 ZZZX=             50.9720
 ZZZY=              0.0738 XXYY=         -29354.9619 XXZZ=         -26304.5134 YYZZ=          -8012.0451
 XXYZ=             -0.0982 YYXZ=             97.3699 ZZXY=              0.1191
 N-N= 2.687659154030D+04 E-N=-6.482747351216D+04  KE= 4.742041752574D+03
 1|1|UNPC-CHSHR-P01|SP|RwB97XD TD-FC|CC-pVDZ|C124H84|IBS|29-May-2024|0|
 |# td=(nstates=60) wb97xd/cc-pvdz scrf=(cpcm,solvent=n,n-DiMethylForma
 mide) geom=AllCheck guess=read maxdisk=900GB integral(ultrafinegrid)||
 G2||0,1|C,0,-3.2580170192,-1.1205716078,-2.0178689692|C,0,-3.389818454
 1,0.2603555633,-2.09278344|C,0,-2.3934696453,1.078311617,-1.5680588261
 |C,0,-1.2663540573,0.553927787,-0.9158834589|C,0,-1.1333968517,-0.8549
 636498,-0.8444860853|C,0,-2.124714372,-1.6604574567,-1.4211997501|C,0,
 -0.1191070435,1.3697597274,-0.3849037438|C,0,1.1668552911,0.7403524087
 ,-0.8379038965|C,0,1.3010129437,-0.6698318653,-0.8715201158|C,0,0.1417
 269695,-1.4726590284,-0.3469254129|C,0,2.1712894176,1.5316722925,-1.41
 15373677|C,0,3.3177510406,0.977569273,-1.9687291629|C,0,3.4508445498,-
 0.4047476097,-2.0065632268|C,0,2.4425612785,-1.2098076785,-1.484700580
 1|C,0,0.2125428954,-2.5940731987,0.432977099|C,0,-0.2073567973,2.50998
 48288,0.3653952591|C,0,1.0316875088,3.0825625012,1.0684234836|C,0,-1.0
 423616731,-3.1496812482,1.1213294404|C,0,-1.4289896539,-4.6055529557,0
 .8836761413|C,0,-1.9105428064,-5.4421444437,1.9169941232|C,0,-1.605874
 0744,-5.0717870759,3.330754319|C,0,-1.5532999343,-3.6072198189,3.58314
 11273|C,0,-1.192582881,-2.7102269418,2.5703927423|C,0,1.4242006785,4.5
 322364503,0.8040251728|C,0,1.8823187837,5.3940181948,1.8272464572|C,0,
 1.5453263466,5.058377038,3.2423347362|C,0,1.486549226,3.6004245833,3.5
 292790335|C,0,1.1486451687,2.6788010099,2.5308806822|C,0,-1.9619919359
 ,-3.0923176351,4.8278517502|C,0,-1.8976285796,-1.7377006127,5.10802564
 01|C,0,-1.4556757582,-0.8563291178,4.1202238296|C,0,-1.1469378734,-1.3
 41551263,2.8582500471|C,0,-1.515974899,-5.0577311805,-0.4395088864|C,0
 ,-2.135857558,-6.2538940814,-0.7748321213|C,0,-2.7287501997,-7.0119043
 255,0.2322107645|C,0,-2.6054804477,-6.6111315619,1.5558539645|C,0,1.54
 81027544,-3.3094298298,0.6191952139|C,0,1.5416449436,4.951810908,-0.52
 75215189|C,0,2.1694977412,6.1394947641,-0.8778219797|C,0,2.7394629522,
 6.9221103946,0.1236214548|C,0,2.5857827863,6.5539191674,1.453530789|C,
 0,1.8666548778,3.1162902028,4.7952141519|C,0,1.7954395137,1.7689409892
 ,5.1069885181|C,0,1.3757174163,0.8635307148,4.131305017|C,0,1.09594701
 73,1.3175888976,2.8511109591|C,0,-1.5465910996,3.229383851,0.503457002
 3|C,0,-2.1411493507,3.4779541429,1.881881646|C,0,-2.8458474127,4.65810
 06417,2.2034218846|C,0,-2.6243428729,5.8667473866,1.3574477599|C,0,-2.
 3514577936,5.5751549113,-0.0765540333|C,0,-1.7096818379,4.3919585723,-
 0.4671491034|C,0,-2.7851158547,6.4697415965,-1.0724457089|C,0,-2.47818
 82907,6.2743076079,-2.4096662846|C,0,-1.72366617,5.1601601718,-2.78145
 7474|C,0,-1.3680865063,4.2256402423,-1.8185344813|C,0,-2.2292424176,2.
 3743164331,2.7389510854|C,0,-3.032069828,2.3912938298,3.8713480818|C,0
 ,-3.8008199207,3.5222783108,4.1411057281|C,0,-3.702812949,4.6359502257
 ,3.3192577415|C,0,2.1109888035,-3.5238840035,2.0165206266|C,0,2.807923
 5833,-4.6955378112,2.3829337884|C,0,2.6054989976,-5.9246696835,1.56205
 90491|C,0,2.365417225,-5.6684685551,0.1154892545|C,0,1.733001732,-4.49
 54321729,-0.3185835669|C,0,2.8214348543,-6.5871180509,-0.8479832335|C,
 0,2.5451251936,-6.4246773468,-2.1962485648|C,0,1.7995598282,-5.3202243
 461,-2.6124025396|C,0,1.4223482654,-4.3624492457,-1.6810802732|C,0,2.1
 797102572,-2.3995106853,2.8480336808|C,0,2.9564940924,-2.3883896886,3.
 9985200096|C,0,3.7186660115,-3.5121339125,4.3134257519|C,0,3.639199335
 1,-4.6456890992,3.5171592302|C,0,1.2453307582,5.9830059157,4.198490703
 8|C,0,-2.5907593369,7.1421744932,1.8380754689|C,0,-1.3279326855,-5.972
 5821377,4.3158825827|C,0,2.5607222619,-7.1879398294,2.0729383764|C,0,1
 .9434840805,-8.3436082204,1.3448241431|C,0,3.0920284211,-7.5387034967,
 3.4306925224|C,0,-1.9566800319,8.2797647816,1.0960992783|C,0,-3.152374
 2285,7.5259492239,3.1745278641|C,0,0.5070685461,5.6453288878,5.4581928
 182|C,0,1.5984551944,7.4347212813,4.0750736416|C,0,-0.618397515,-5.603
 8812602,5.5833680933|C,0,-1.6783755909,-7.4270306446,4.220141818|C,0,-
 2.8996382479,-7.8724542053,4.745890257|C,0,-3.2587571202,-9.2173547679
 ,4.6678052775|C,0,-2.4053529302,-10.1377217286,4.0563432411|C,0,-1.189
 6104572,-9.7028078183,3.5307445194|C,0,-0.8299281486,-8.3596377836,3.6
 224788728|C,0,-0.9902683083,-6.148060205,6.8204128918|C,0,-0.291317060
 9,-5.8285177888,7.9847485159|C,0,0.8075381742,-4.9732894083,7.93235152
 74|C,0,1.2072170124,-4.4484121761,6.7021285479|C,0,0.507015647,-4.7626
 757676,5.5432608265|C,0,2.3259952424,-7.4052215711,4.589615704|C,0,2.8
 552288132,-7.7183620412,5.8401972732|C,0,4.1626317614,-8.1900371466,5.
 9477740911|C,0,4.9365876347,-8.3389012994,4.7954695078|C,0,4.406707808
 1,-8.0123235187,3.5479134957|C,0,2.510102876,-9.6249821328,1.377566777
 7|C,0,1.8931205548,-10.6995679589,0.7361696592|C,0,0.6852674014,-10.51
 85162534,0.0655439311|C,0,0.0948515563,-9.2535134254,0.0502529822|C,0,
 0.7133267749,-8.1823002029,0.6837445029|C,0,-2.4126829411,7.4205414819
 ,4.353283054|C,0,-2.9696614918,7.763969192,5.5836921462|C,0,-4.2788483
 092,8.2382568971,5.6503634158|C,0,-5.0266120522,8.359193513,4.47767358
 11|C,0,-4.4690496348,8.0023925164,3.2506223906|C,0,-2.5235350524,9.561
 3921389,1.0842864463|C,0,-1.8916660379,10.620045822,0.4309983696|C,0,-
 0.6687669968,10.4228886728,-0.2070297283|C,0,-0.0785263071,9.158054537
 6,-0.1776365286|C,0,-0.7117122609,8.1025715724,0.4676242714|C,0,0.7642
 567767,8.3523072863,3.4355537078|C,0,1.1265981286,9.6928399749,3.31904
 68246|C,0,2.3302990852,10.1406245746,3.8612884476|C,0,3.1691427015,9.2
 356205322,4.5144057185|C,0,2.8076837307,7.8930193546,4.6173216212|C,0,
 0.8508123877,6.2198854098,6.689620183|C,0,0.1254987729,5.9288092559,7.
 8452692729|C,0,-0.9720507,5.0721629128,7.7889442551|C,0,-1.3437650328,
 4.5170681379,6.5632219251|C,0,-0.6173306307,4.8030016155,5.4132042902|
 H,0,-4.0096931978,-1.7801613607,-2.4533425644|H,0,-4.2486733731,0.7127
 999673,-2.5903302976|H,0,-2.4950165503,2.1483887412,-1.7263632418|H,0,
 -1.9967669894,-2.7400886622,-1.436145614|H,0,2.0440125542,2.6105715729
 ,-1.4559969449|H,0,4.079341279,1.6264403025,-2.4030782062|H,0,4.320694
 5034,-0.8690736379,-2.4730961903|H,0,2.5473969491,-2.2834322051,-1.614
 2325613|H,0,1.8777235155,2.5343089012,0.6331407022|H,0,-1.8781238443,-
 2.6125769101,0.6535122861|H,0,-2.3291067793,-3.7783222783,5.590199007|
 H,0,-2.1986778722,-1.3653833279,6.0883503758|H,0,-1.3662702361,0.20842
 2754,4.3328273299|H,0,-0.8715297545,-0.648488746,2.0619816569|H,0,-1.0
 914755173,-4.4495740771,-1.2355827129|H,0,-2.1825143573,-6.5712413491,
 -1.8176977944|H,0,-3.2776475965,-7.9242739684,-0.0067806799|H,0,-3.070
 9038411,-7.2193269182,2.3253334257|H,0,2.2888125351,-2.5945358038,0.23
 63040395|H,0,1.1352645421,4.3242086096,-1.3179362534|H,0,2.24015148,6.
 4311502072,-1.9268214717|H,0,3.2940437992,7.8284323658,-0.1250645756|H
 ,0,3.0337112857,7.1808915512,2.2183102963|H,0,2.2165555114,3.820874959
 4,5.5486613669|H,0,2.073985147,1.4208315698,6.1027392566|H,0,1.2810789
 962,-0.1956980583,4.3678781054|H,0,0.8384550761,0.6051452597,2.0660324
 573|H,0,-2.2785922495,2.5051174643,0.1214379801|H,0,-3.3671285619,7.34
 3108035,-0.7798253709|H,0,-2.8196104294,6.9900805142,-3.1589556775|H,0
 ,-1.4390403822,5.0025463274,-3.8229456147|H,0,-0.8059851117,3.34274451
 86,-2.1254359211|H,0,-1.6849150505,1.4683641111,2.470131356|H,0,-3.099
 4002693,1.5135437088,4.5155408614|H,0,-4.4826508612,3.537935676,4.9928
 914994|H,0,-4.3232828887,5.49910223,3.5403709517|H,0,3.3963884526,-7.4
 528680216,-0.520803767|H,0,2.9033575318,-7.1585388968,-2.9197479247|H,
 0,1.5388025744,-5.1883189623,-3.6636671221|H,0,0.8676139073,-3.4875242
 571,-2.0223015553|H,0,1.6418028538,-1.5006434633,2.5447156276|H,0,3.00
 92878483,-1.4950683771,4.6223396157|H,0,4.380899628,-3.5066290496,5.18
 06586861|H,0,4.2542692983,-5.502933397,3.7735226071|H,0,-3.5858998827,
 -7.1517265202,5.1963991626|H,0,-4.2159733042,-9.5457142448,5.077141263
 7|H,0,-2.6916846885,-11.1886638158,3.9863181569|H,0,-0.5160212697,-10.
 4032605359,3.0324126755|H,0,0.103931952,-8.0284305484,3.1792854642|H,0
 ,-1.8430887374,-6.8246889918,6.8833368773|H,0,-0.6098544725,-6.2555067
 132,8.9375684733|H,0,1.3582052063,-4.7265799666,8.8418764242|H,0,2.080
 8546128,-3.7978417733,6.6384427678|H,0,0.8465125704,-4.3620956088,4.58
 64894205|H,0,1.3183419681,-7.0065040093,4.5254128829|H,0,2.2394703192,
 -7.5770349484,6.7309977075|H,0,4.5812784175,-8.4358529167,6.9253638503
 |H,0,5.9639863421,-8.7005649832,4.8683205803|H,0,5.028715658,-8.099043
 0252,2.6540578173|H,0,3.4507934232,-9.7913853112,1.9033271397|H,0,2.36
 21416385,-11.6848593946,0.7659815069|H,0,0.1990411723,-11.3597932355,-
 0.4316070897|H,0,-0.8634877051,-9.0988898404,-0.4481590674|H,0,0.22694
 96374,-7.2050311035,0.6810216714|H,0,-1.4041247826,7.0202359702,4.3213
 870723|H,0,-2.3741637497,7.6441630754,6.4912671182|H,0,-4.7192160024,8
 .5077503114,6.6120399327|H,0,-6.0551624658,8.7226004338,4.5186188211|H
 ,0,-5.0707854433,8.0674295112,2.3411858027|H,0,-3.4760093663,9.7404227
 043,1.5840408154|H,0,-2.3609644646,11.6056423754,0.4257788158|H,0,-0.1
 709995176,11.2518173993,-0.7134153305|H,0,0.8909629249,8.9914765463,-0
 .649950241|H,0,-0.2257070241,7.1256509777,0.5000876991|H,0,-0.15946128
 91,8.0102640381,2.9795192548|H,0,0.4648540508,10.3807944096,2.78847858
 34|H,0,2.6186663075,11.1895458309,3.7719767578|H,0,4.1169799447,9.5739
 986739,4.9371863864|H,0,3.4831922732,7.1836275757,5.1008633662|H,0,1.7
 021103309,6.8981707027,6.7552699611|H,0,0.4223777185,6.3792066693,8.79
 42984846|H,0,-1.5433024601,4.8476876418,8.6915055639|H,0,-2.2158749184
 ,3.8648376213,6.4956893895|H,0,-0.9350769325,4.3789217567,4.4590928231
 ||Version=EM64W-G09RevD.01|State=1-A|HF=-4774.5848261|RMSD=8.622e-009|
 PG=C01 [X(C124H84)]||@


 IT'S WHAT YOU LEARN AFTER YOU KNOW IT ALL
 THAT COUNTS.
 Job cpu time:       3 days 12 hours 52 minutes 15.0 seconds.
 File lengths (MBytes):  RWF=  68358 Int=      0 D2E=      0 Chk=   9351 Scr=      1
 Normal termination of Gaussian 09 at Wed May 29 10:11:27 2024.
