 Entering Link 1 = C:\G09W\l1.exe PID=     15112.
  
 Copyright (c) 1988,1990,1992,1993,1995,1998,2003,2009,2013,
            Gaussian, Inc.  All Rights Reserved.
  
 This is part of the Gaussian(R) 09 program.  It is based on
 the Gaussian(R) 03 system (copyright 2003, Gaussian, Inc.),
 the Gaussian(R) 98 system (copyright 1998, Gaussian, Inc.),
 the Gaussian(R) 94 system (copyright 1995, Gaussian, Inc.),
 the Gaussian 92(TM) system (copyright 1992, Gaussian, Inc.),
 the Gaussian 90(TM) system (copyright 1990, Gaussian, Inc.),
 the Gaussian 88(TM) system (copyright 1988, Gaussian, Inc.),
 the Gaussian 86(TM) system (copyright 1986, Carnegie Mellon
 University), and the Gaussian 82(TM) system (copyright 1983,
 Carnegie Mellon University). Gaussian is a federally registered
 trademark of Gaussian, Inc.
  
 This software contains proprietary and confidential information,
 including trade secrets, belonging to Gaussian, Inc.
  
 This software is provided under written license and may be
 used, copied, transmitted, or stored only in accord with that
 written license.
  
 The following legend is applicable only to US Government
 contracts under FAR:
  
                    RESTRICTED RIGHTS LEGEND
  
 Use, reproduction and disclosure by the US Government is
 subject to restrictions as set forth in subparagraphs (a)
 and (c) of the Commercial Computer Software - Restricted
 Rights clause in FAR 52.227-19.
  
 Gaussian, Inc.
 340 Quinnipiac St., Bldg. 40, Wallingford CT 06492
  
  
 ---------------------------------------------------------------
 Warning -- This program may not be used in any manner that
 competes with the business of Gaussian, Inc. or will provide
 assistance to any competitor of Gaussian, Inc.  The licensee
 of this program is prohibited from giving any competitor of
 Gaussian, Inc. access to this program.  By using this program,
 the user acknowledges that Gaussian, Inc. is engaged in the
 business of creating and licensing software in the field of
 computational chemistry and represents and warrants to the
 licensee that it is not a competitor of Gaussian, Inc. and that
 it will not use this program in any manner prohibited above.
 ---------------------------------------------------------------
  

 Cite this work as:
 Gaussian 09, Revision D.01,
 M. J. Frisch, G. W. Trucks, H. B. Schlegel, G. E. Scuseria, 
 M. A. Robb, J. R. Cheeseman, G. Scalmani, V. Barone, B. Mennucci, 
 G. A. Petersson, H. Nakatsuji, M. Caricato, X. Li, H. P. Hratchian, 
 A. F. Izmaylov, J. Bloino, G. Zheng, J. L. Sonnenberg, M. Hada, 
 M. Ehara, K. Toyota, R. Fukuda, J. Hasegawa, M. Ishida, T. Nakajima, 
 Y. Honda, O. Kitao, H. Nakai, T. Vreven, J. A. Montgomery, Jr., 
 J. E. Peralta, F. Ogliaro, M. Bearpark, J. J. Heyd, E. Brothers, 
 K. N. Kudin, V. N. Staroverov, T. Keith, R. Kobayashi, J. Normand, 
 K. Raghavachari, A. Rendell, J. C. Burant, S. S. Iyengar, J. Tomasi, 
 M. Cossi, N. Rega, J. M. Millam, M. Klene, J. E. Knox, J. B. Cross, 
 V. Bakken, C. Adamo, J. Jaramillo, R. Gomperts, R. E. Stratmann, 
 O. Yazyev, A. J. Austin, R. Cammi, C. Pomelli, J. W. Ochterski, 
 R. L. Martin, K. Morokuma, V. G. Zakrzewski, G. A. Voth, 
 P. Salvador, J. J. Dannenberg, S. Dapprich, A. D. Daniels, 
 O. Farkas, J. B. Foresman, J. V. Ortiz, J. Cioslowski, 
 and D. J. Fox, Gaussian, Inc., Wallingford CT, 2013.
 
 ******************************************
 Gaussian 09:  EM64W-G09RevD.01 13-Apr-2013
                18-May-2024 
 ******************************************
 %nprocshared=15
 Will use up to   15 processors via shared memory.
 %mem=50GB
 %chk=D:\Yaroslav\pink-mystery\mono_pin_rear1\uv1_conf1\mono_pin_rear1.chk
 ----------------------------------------------------------------------
 # td=(nstates=60) wb97xd/cc-pvdz scrf=(cpcm,solvent=n,n-DiMethylFormam
 ide) geom=AllCheck guess=read maxdisk=900GB integral(ultrafinegrid)
 ----------------------------------------------------------------------
 1/29=7,38=1/1;
 2/12=2,40=1/2;
 3/5=16,11=9,14=-4,16=1,25=1,30=1,70=2101,72=148,74=-58,75=-5,116=-2/1,2,8,3;
 4/5=1/1;
 5/5=2,38=6,53=148/2;
 8/6=1,10=1,108=60/1;
 9/41=60,42=1,70=2/14;
 6/7=2,8=2,9=2,10=2/1;
 99/5=1,9=1/99;
 Structure from the checkpoint file:  "D:\Yaroslav\pink-mystery\mono_pin_rear1\uv1_conf1\mono_pin_rear1.chk"
 --------------
 mono_pin_rear1
 --------------
 Charge =  1 Multiplicity = 2
 Redundant internal coordinates found in file.
 C,0,2.2356633528,1.0719186115,0.7038406192
 C,0,3.3638802669,0.3271893873,0.992943312
 C,0,3.3184682069,-1.0696393589,0.9253137104
 C,0,2.132217918,-1.707947921,0.577792997
 C,0,-0.1294941645,1.2148490279,0.023754298
 C,0,1.0180074549,0.443130136,0.3477044289
 C,0,0.9817619048,-0.9719797943,0.3039417702
 C,0,-0.3017968334,-1.7129851302,-0.1434611035
 C,0,-2.5200020307,1.4097301532,-0.5341188119
 C,0,-1.3773671951,0.6100134487,-0.2966649015
 C,0,-1.5184093803,-0.7961642466,-0.315379487
 C,0,-2.7694946744,-1.3602096915,-0.542137006
 C,0,-3.8861184901,-0.5591424167,-0.7619194453
 C,0,-3.755062289,0.8334194342,-0.7657178689
 H,0,-0.0582529578,2.2958445306,0.045132471
 C,0,-0.5203297765,-2.6639575408,1.0122471145
 O,0,-0.027620426,-3.8582936841,0.8339978884
 H,0,-0.0113637641,-4.4635784509,1.6231914718
 C,0,-0.0487055009,-2.4026481385,-1.4992689813
 C,0,0.7992708138,-1.7695259438,-2.4101431766
 C,0,0.9661898273,-2.2805618078,-3.6943357533
 C,0,0.2890487209,-3.4334426443,-4.0828493492
 C,0,-0.5601358851,-4.0678663519,-3.1791480607
 C,0,-0.7334440128,-3.55405403,-1.8967928838
 C,0,-1.1782882964,-2.2970862026,2.2352407828
 C,0,-1.2610446698,-0.9536242009,2.6541199119
 C,0,-1.908283466,-0.6405313936,3.8361106114
 C,0,-2.4970960286,-1.647559498,4.6036406541
 C,0,-2.4298247585,-2.9797756347,4.194651581
 C,0,-1.7673154873,-3.3091786872,3.0245894697
 H,0,2.2697946666,2.1544273635,0.739704029
 H,0,4.285755608,0.8260297239,1.2639149048
 H,0,4.2029263367,-1.6564334485,1.1363722828
 H,0,2.1122430504,-2.7877053869,0.503614414
 H,0,-2.4123435535,2.4879971204,-0.5209858965
 H,0,-2.8871799677,-2.4369993073,-0.552482824
 H,0,-4.8517240036,-1.0179551164,-0.9312086513
 H,0,-4.6207902301,1.459029464,-0.9423472232
 H,0,1.3313780545,-0.8739728418,-2.1168255121
 H,0,1.627247234,-1.7761394361,-4.388189408
 H,0,0.420916045,-3.8348996664,-5.0799638897
 H,0,-1.0903836149,-4.9667916727,-3.4685742351
 H,0,-1.3917588735,-4.0743571398,-1.2149925193
 H,0,-0.7879950812,-0.1687862373,2.084322391
 H,0,-1.9535264124,0.3891026511,4.1639199116
 H,0,-3.0121346773,-1.3924358222,5.5211248618
 H,0,-2.900224932,-3.7558893526,4.78286825
 H,0,-1.7755580281,-4.3439628558,2.7023528512
 Recover connectivity data from disk.
                          Input orientation:                          
 ---------------------------------------------------------------------
 Center     Atomic      Atomic             Coordinates (Angstroms)
 Number     Number       Type             X           Y           Z
 ---------------------------------------------------------------------
      1          6           0        2.235663    1.071919    0.703841
      2          6           0        3.363880    0.327189    0.992943
      3          6           0        3.318468   -1.069639    0.925314
      4          6           0        2.132218   -1.707948    0.577793
      5          6           0       -0.129494    1.214849    0.023754
      6          6           0        1.018007    0.443130    0.347704
      7          6           0        0.981762   -0.971980    0.303942
      8          6           0       -0.301797   -1.712985   -0.143461
      9          6           0       -2.520002    1.409730   -0.534119
     10          6           0       -1.377367    0.610013   -0.296665
     11          6           0       -1.518409   -0.796164   -0.315379
     12          6           0       -2.769495   -1.360210   -0.542137
     13          6           0       -3.886118   -0.559142   -0.761919
     14          6           0       -3.755062    0.833419   -0.765718
     15          1           0       -0.058253    2.295845    0.045132
     16          6           0       -0.520330   -2.663958    1.012247
     17          8           0       -0.027620   -3.858294    0.833998
     18          1           0       -0.011364   -4.463578    1.623191
     19          6           0       -0.048706   -2.402648   -1.499269
     20          6           0        0.799271   -1.769526   -2.410143
     21          6           0        0.966190   -2.280562   -3.694336
     22          6           0        0.289049   -3.433443   -4.082849
     23          6           0       -0.560136   -4.067866   -3.179148
     24          6           0       -0.733444   -3.554054   -1.896793
     25          6           0       -1.178288   -2.297086    2.235241
     26          6           0       -1.261045   -0.953624    2.654120
     27          6           0       -1.908283   -0.640531    3.836111
     28          6           0       -2.497096   -1.647559    4.603641
     29          6           0       -2.429825   -2.979776    4.194652
     30          6           0       -1.767315   -3.309179    3.024589
     31          1           0        2.269795    2.154427    0.739704
     32          1           0        4.285756    0.826030    1.263915
     33          1           0        4.202926   -1.656433    1.136372
     34          1           0        2.112243   -2.787705    0.503614
     35          1           0       -2.412344    2.487997   -0.520986
     36          1           0       -2.887180   -2.436999   -0.552483
     37          1           0       -4.851724   -1.017955   -0.931209
     38          1           0       -4.620790    1.459029   -0.942347
     39          1           0        1.331378   -0.873973   -2.116826
     40          1           0        1.627247   -1.776139   -4.388189
     41          1           0        0.420916   -3.834900   -5.079964
     42          1           0       -1.090384   -4.966792   -3.468574
     43          1           0       -1.391759   -4.074357   -1.214993
     44          1           0       -0.787995   -0.168786    2.084322
     45          1           0       -1.953526    0.389103    4.163920
     46          1           0       -3.012135   -1.392436    5.521125
     47          1           0       -2.900225   -3.755889    4.782868
     48          1           0       -1.775558   -4.343963    2.702353
 ---------------------------------------------------------------------
                    Distance matrix (angstroms):
                    1          2          3          4          5
     1  C    0.000000
     2  C    1.382417   0.000000
     3  C    2.409935   1.399202   0.000000
     4  C    2.784645   2.414772   1.391186   0.000000
     5  C    2.465140   3.732416   4.233219   3.736983   0.000000
     6  C    1.415943   2.435753   2.813223   2.433422   1.420301
     7  C    2.430989   2.799473   2.419884   1.392908   2.468930
     8  C    3.861646   4.346368   3.829163   2.538634   2.937663
     9  C    4.925750   6.174454   6.508836   5.709590   2.462464
    10  C    3.777348   4.921637   5.134719   4.295906   1.423264
    11  C    4.315276   5.177874   5.000949   3.867323   2.467442
    12  C    5.702571   6.543858   6.269062   5.040035   3.731054
    13  C    6.502694   7.511831   7.417104   6.271759   4.228068
    14  C    6.172947   7.350408   7.517716   6.551613   3.730080
    15  H    2.682153   4.060166   4.848035   4.594806   1.083551
    16  C    4.652675   4.902491   4.157617   2.852843   4.021817
    17  O    5.426453   5.389416   4.356747   3.058518   5.138448
    18  H    6.044507   5.894145   4.805584   3.644352   5.900567
    19  C    4.705810   5.030793   4.358139   3.090829   3.925865
    20  C    4.453530   4.749151   4.238097   3.272354   3.961433
    21  C    5.674032   5.875361   5.323599   4.465265   5.219446
    22  C    6.855654   7.025711   6.312420   5.300584   6.216590
    23  C    7.022214   7.219471   6.393711   5.189662   6.192828
    24  C    6.080996   6.340559   5.527621   4.212327   5.176456
    25  C    5.034923   5.390865   4.841834   3.748822   4.280693
    26  C    4.487024   5.078378   4.896342   4.048996   3.591867
    27  C    5.469543   6.067602   5.997983   5.299213   4.597890
    28  C    6.708428   7.161551   6.905423   6.135279   5.896972
    29  C    7.097096   7.399593   6.883318   5.959148   6.346872
    30  C    6.372105   6.609079   5.940344   4.874127   5.670476
    31  H    1.083640   2.144750   3.395405   3.868215   2.674318
    32  H    2.139398   1.082646   2.154961   3.395516   4.602566
    33  H    3.391329   2.158548   1.082192   2.145343   5.315266
    34  H    3.866784   3.392434   2.141159   1.082487   4.612602
    35  H    5.010933   6.350262   6.898606   6.282222   2.670028
    36  H    6.335170   7.007484   6.524080   5.196479   4.612253
    37  H    7.567828   8.544468   8.378627   7.178344   5.310068
    38  H    7.061922   8.293454   8.538978   7.612075   4.600513
    39  H    3.544063   3.904423   3.638877   2.932205   3.328574
    40  H    5.866036   6.032949   5.620737   4.992056   5.612254
    41  H    7.798882   7.928696   7.218437   6.281934   7.200754
    42  H    8.058390   8.232365   7.343842   6.113780   7.164660
    43  H    6.582117   6.845779   5.982932   4.607861   5.577052
    44  H    3.547899   4.321478   4.360949   3.628539   2.567881
    45  H    5.476102   6.191425   6.356920   5.826769   4.598904
    46  H    7.537815   8.007191   7.829573   7.141459   6.732654
    47  H    8.143927   8.382963   7.795435   6.870386   7.418514
    48  H    7.029632   7.152312   6.310956   5.170401   6.386298
                    6          7          8          9         10
     6  C    0.000000
     7  C    1.416250   0.000000
     8  C    2.575259   1.548154   0.000000
     9  C    3.772193   4.317087   3.850247   0.000000
    10  C    2.486138   2.903260   2.564497   1.414760   0.000000
    11  C    2.899817   2.581729   1.533057   2.432489   1.413357
    12  C    4.288243   3.865035   2.524465   2.781165   2.424882
    13  C    5.127013   5.000275   3.815915   2.407203   2.806639
    14  C    4.916730   5.180844   4.335484   1.382442   2.433794
    15  H    2.163894   3.439083   4.020646   2.679727   2.167698
    16  C    3.530169   2.370815   1.512536   4.794254   3.628588
    17  O    4.453321   3.103324   2.373383   5.986300   4.802706
    18  H    5.173225   3.862380   3.281947   6.741143   5.594028
    19  C    3.556352   2.521952   1.542046   4.644680   3.505386
    20  C    3.542515   2.834720   2.520594   4.964344   3.855743
    21  C    4.874348   4.207000   3.812957   5.979863   5.039033
    22  C    5.932032   5.077656   4.339107   6.628769   5.784606
    23  C    5.939555   4.908551   3.850662   6.390721   5.555100
    24  C    4.907426   3.801614   2.578764   5.448653   4.507161
    25  C    3.986890   3.186164   2.601468   4.817680   3.860234
    26  C    3.530517   3.248670   3.053399   4.163566   3.341500
    27  C    4.680436   4.575854   4.423567   4.865869   4.350353
    28  C    5.902536   5.571918   5.230544   5.978638   5.510302
    29  C    6.197002   5.550477   4.995246   6.452686   5.845184
    30  C    5.385495   4.519054   3.838245   5.958107   5.151976
    31  H    2.156194   3.409302   4.727573   5.011921   4.094028
    32  H    3.415294   3.882108   5.428899   7.063425   5.878183
    33  H    3.895366   3.396663   4.683343   7.575597   6.191127
    34  H    3.414668   2.148189   2.720537   6.336643   4.935820
    35  H    4.086981   4.916492   4.716480   1.083708   2.155996
    36  H    4.935177   4.224743   2.715824   3.864257   3.410171
    37  H    6.182567   5.962992   4.669631   3.389434   3.888969
    38  H    5.873017   6.233108   5.417896   2.140652   3.414312
    39  H    2.811916   2.447846   2.695435   4.749041   3.585038
    40  H    5.265455   4.804104   4.662930   6.496407   5.609100
    41  H    6.936688   6.123504   5.421614   7.537894   6.772815
    42  H    6.948133   5.872324   4.718634   7.163440   6.422159
    43  H    5.353194   4.191122   2.812877   5.640189   4.773558
    44  H    2.579133   2.635700   2.753899   3.513943   2.573517
    45  H    4.836986   5.036655   5.069568   4.840882   4.503063
    46  H    6.809965   6.583843   6.287783   6.690314   6.366235
    47  H    7.256376   6.548340   5.932454   7.422839   6.868905
    48  H    6.022013   4.972470   4.146405   6.643337   5.804700
                   11         12         13         14         15
    11  C    0.000000
    12  C    1.390964   0.000000
    13  C    2.421079   1.391712   0.000000
    14  C    2.803741   2.415231   1.398720   0.000000
    15  H    3.438393   4.589384   4.843019   4.057409   0.000000
    16  C    2.499481   3.028962   4.348154   5.084909   5.074294
    17  O    3.594462   3.956267   5.321594   6.202023   6.204568
    18  H    4.413521   4.682609   5.995590   6.912333   6.941345
    19  C    2.478389   3.066834   4.320641   4.974667   4.945816
    20  C    3.272172   4.048836   5.112195   5.497400   4.826071
    21  C    4.449047   4.973806   5.925137   6.368980   5.998050
    22  C    4.941252   5.117580   6.059884   6.750134   7.070048
    23  C    4.452358   4.377956   5.405210   6.328886   7.151551
    24  C    3.274598   3.285354   4.494084   5.446047   6.200667
    25  C    2.978945   3.335192   4.397245   5.044361   5.210189
    26  C    2.984788   3.557638   4.326194   4.594447   4.337346
    27  C    4.172660   4.519809   5.006030   5.173002   5.139692
    28  C    5.087186   5.160988   5.648298   6.047127   6.502183
    29  C    5.093056   5.017523   5.705073   6.395465   7.118640
    30  C    4.187193   4.186213   5.137088   5.956399   6.573762
    31  H    4.916267   6.276163   6.893011   6.349036   2.433564
    32  H    6.230090   7.603816   8.532422   8.293022   4.745123
    33  H    5.965009   7.177729   8.380943   8.552596   5.913455
    34  H    4.221211   5.192562   6.522914   7.010636   5.546507
    35  H    3.409855   3.864803   3.393394   2.144858   2.428818
    36  H    2.149905   1.083251   2.137309   3.390329   5.546150
    37  H    3.396973   2.145739   1.082387   2.158157   5.908627
    38  H    3.886355   3.396406   2.155299   1.082622   4.742586
    39  H    3.372321   4.419641   5.399737   5.532861   4.080794
    40  H    5.238634   5.856318   6.710299   6.992950   6.251104
    41  H    5.974626   6.074099   6.922907   7.605571   8.005138
    42  H    5.245949   4.938713   5.879582   6.931695   8.133715
    43  H    3.401748   3.117288   4.334033   5.465649   6.629149
    44  H    2.585668   3.499160   4.225144   4.234458   3.281040
    45  H    4.653849   5.086538   5.375684   5.267284   4.918550
    46  H    6.054051   6.068200   6.398037   6.710497   7.232933
    47  H    6.054875   5.840552   6.475789   7.251159   8.194292
    48  H    4.664730   4.518563   5.548019   6.538443   7.355066
                   16         17         18         19         20
    16  C    0.000000
    17  O    1.304214   0.000000
    18  H    1.967469   0.994716   0.000000
    19  C    2.568740   2.750179   3.741469   0.000000
    20  C    3.775461   3.946030   4.917605   1.396281   0.000000
    21  C    4.950622   4.897214   5.830718   2.421412   1.392182
    22  C    5.216053   4.945317   5.806060   2.802053   2.413895
    23  C    4.420445   4.053743   4.849763   2.420022   2.778799
    24  C    3.049623   2.836894   3.706606   1.397365   2.407755
    25  C    1.436390   2.392674   2.535746   3.903033   5.076283
    26  C    2.483877   3.642977   3.865785   4.562902   5.527871
    27  C    3.740972   4.785767   4.807391   5.918561   6.900809
    28  C    4.223598   5.019548   4.794987   6.618934   7.750747
    29  C    3.724730   4.223313   3.829234   6.198672   7.450844
    30  C    2.453733   2.850747   2.525851   4.923486   6.204371
    31  H    5.574577   6.437377   7.055653   5.581700   5.242269
    32  H    5.944897   6.382235   6.824534   6.070181   5.691326
    33  H    4.831114   4.778823   5.086973   5.057649   4.916852
    34  H    2.684113   2.415435   2.927748   2.971449   3.354187
    35  H    5.698522   6.913631   7.660718   5.519260   5.657728
    36  H    2.846378   3.481305   4.136532   2.992411   4.181667
    37  H    5.024671   5.869877   6.467331   5.030810   5.889469
    38  H    6.134593   7.247519   7.931336   6.010547   6.477272
    39  H    4.052649   4.411395   5.354993   2.150083   1.082215
    40  H    5.879203   5.860477   6.785578   3.398116   2.144354
    41  H    6.274718   5.930993   6.746436   3.885005   3.396596
    42  H    5.070085   4.568409   5.229109   3.396776   3.861810
    43  H    2.776547   2.471016   3.179980   2.163150   3.397241
    44  H    2.728895   3.969124   4.388740   4.287052   5.028121
    45  H    4.616088   5.730434   5.811696   6.594992   7.446870
    46  H    5.306207   6.079222   5.799175   7.686896   8.807612
    47  H    4.590621   4.884252   4.339343   7.030482   8.328945
    48  H    2.693413   2.604210   2.071540   4.940076   6.276550
                   21         22         23         24         25
    21  C    0.000000
    22  C    1.392335   0.000000
    23  C    2.406148   1.392941   0.000000
    24  C    2.782391   2.416378   1.392291   0.000000
    25  C    6.305469   6.585032   5.730042   4.341838   0.000000
    26  C    6.857421   7.344321   6.649571   5.267960   1.409680
    27  C    8.225565   8.679778   7.923256   6.537205   2.416578
    28  C    9.013959   9.295541   8.377440   7.000059   2.787554
    29  C    8.617304   8.724397   7.684569   6.349268   2.423159
    30  C    7.326258   7.399984   6.365473   5.034765   1.412217
    31  H    6.405406   7.642295   7.879267   6.968308   5.825966
    32  H    6.727160   7.918627   8.195956   7.373437   6.368132
    33  H    5.848225   6.761396   6.864801   6.096623   5.529504
    34  H    4.381029   4.977616   4.726855   3.800945   3.750578
    35  H    6.650097   7.419423   7.312718   6.420119   5.658330
    36  H    4.974351   4.852300   3.869655   2.773727   3.272811
    37  H    6.563320   6.495765   5.724764   4.931975   5.015646
    38  H    7.264457   7.609570   7.213790   6.415094   6.004689
    39  H    2.144853   3.391546   3.860999   3.390389   5.221509
    40  H    1.082992   2.151897   3.390935   3.865346   7.211951
    41  H    2.152500   1.082956   2.151706   3.397646   7.644249
    42  H    3.390618   2.152052   1.083050   2.143299   6.298298
    43  H    3.863259   3.385334   2.132966   1.081178   3.886949
    44  H    6.397629   7.060596   6.554301   5.226116   2.169047
    45  H    8.797956   9.362168   8.702112   7.332757   3.396529
    46  H   10.076733  10.358564   9.426822   8.055466   3.870196
    47  H    9.433384   9.427427   8.304640   7.025208   3.403466
    48  H    7.258955   7.150568   6.012116   4.781433   2.182803
                   26         27         28         29         30
    26  C    0.000000
    27  C    1.383491   0.000000
    28  C    2.410394   1.396391   0.000000
    29  C    2.800817   2.423349   1.395205   0.000000
    30  C    2.437662   2.792869   2.405610   1.384366   0.000000
    31  H    5.078563   5.903886   7.218612   7.770658   7.167283
    32  H    5.988892   6.865356   7.954841   8.256657   7.539204
    33  H    5.714235   6.757775   7.544026   7.422782   6.476165
    34  H    4.400863   5.646284   6.273448   5.855854   4.655988
    35  H    4.821985   5.387584   6.585728   7.220393   6.826010
    36  H    3.889347   4.842033   5.230773   4.799903   3.848407
    37  H    5.074613   5.615481   6.047746   5.999065   5.514673
    38  H    5.481183   5.882135   6.702160   7.133868   6.827497
    39  H    5.430370   6.781397   7.773051   7.643023   6.478138
    40  H    7.655905   9.023785   9.893419   9.569417   8.295936
    41  H    8.422992   9.753232  10.347533   9.740454   8.411214
    42  H    7.322706   8.529004   8.840633   8.029157   6.735510
    43  H    4.972534   6.129568   6.400594   5.616043   4.324419
    44  H    1.079081   2.132218   3.384488   3.879530   3.421291
    45  H    2.135870   1.081505   2.153326   3.402520   3.874278
    46  H    3.388007   2.150144   1.082650   2.149015   3.384696
    47  H    3.882161   3.403785   2.153994   1.081493   2.138826
    48  H    3.429497   3.875362   3.377292   2.125095   1.083828
                   31         32         33         34         35
    31  H    0.000000
    32  H    2.470534   0.000000
    33  H    4.291504   2.487117   0.000000
    34  H    4.950276   4.285008   2.459901   0.000000
    35  H    4.860352   7.128291   7.980284   7.025292   0.000000
    36  H    7.024623   8.086882   7.330152   5.121774   4.947934
    37  H    7.973204   9.576658   9.309631   7.327180   4.290753
    38  H    7.126923   9.197545   9.585675   8.090692   2.472561
    39  H    4.267504   4.800808   4.409232   3.337488   5.278731
    40  H    6.492882   6.766479   6.096658   5.018788   7.032526
    41  H    8.553299   8.769609   7.595535   5.927356   8.294014
    42  H    8.928167   9.211737   7.757779   5.548290   8.124637
    43  H    7.485023   7.898920   6.532670   4.109393   6.677405
    44  H    4.068833   5.235043   5.293487   4.215300   4.060128
    45  H    5.716473   6.894170   7.159062   6.326170   5.154048
    46  H    7.958706   8.735252   8.447062   7.306260   7.205873
    47  H    8.832221   9.220376   8.255871   6.661398   8.207010
    48  H    7.902275   8.095520   6.739242   4.729840   7.580969
                   36         37         38         39         40
    36  H    0.000000
    37  H    2.452866   0.000000
    38  H    4.282107   2.487751   0.000000
    39  H    4.763030   6.297394   6.500047   0.000000
    40  H    5.960657   7.382589   7.834419   2.461816   0.000000
    41  H    5.778902   7.276543   8.400259   4.286749   2.484407
    42  H    4.258159   6.014916   7.754790   4.944019   4.290859
    43  H    2.314334   4.625309   6.412437   4.297818   4.946249
    44  H    4.062525   5.131122   5.147896   4.758012   7.092982
    45  H    5.577008   6.028242   5.859437   7.199564   9.520966
    46  H    6.164044   6.719891   7.245350   8.801886  10.948315
    47  H    5.495963   6.629880   7.933084   8.591722  10.417567
    48  H    3.932705   5.807572   7.419832   6.702116   8.273366
                   41         42         43         44         45
    41  H    0.000000
    42  H    2.482294   0.000000
    43  H    4.275644   2.442519   0.000000
    44  H    8.138111   7.344859   5.148154   0.000000
    45  H   10.436933   9.364058   7.012186   2.448352   0.000000
    46  H   11.407653   9.863257   7.429239   4.272672   2.477203
    47  H   10.407290   8.533939   6.192837   4.960945   4.296544
    48  H    8.102351   6.240010   3.945324   4.334667   4.956789
                   46         47         48
    46  H    0.000000
    47  H    2.478600   0.000000
    48  H    4.264517   2.437058   0.000000
 Stoichiometry    C27H20O(1+,2)
 Framework group  C1[X(C27H20O)]
 Deg. of freedom   138
 Full point group                 C1      NOp   1
 Largest Abelian subgroup         C1      NOp   1
 Largest concise Abelian subgroup C1      NOp   1
                         Standard orientation:                         
 ---------------------------------------------------------------------
 Center     Atomic      Atomic             Coordinates (Angstroms)
 Number     Number       Type             X           Y           Z
 ---------------------------------------------------------------------
      1          6           0       -0.445164    3.373541    1.492755
      2          6           0       -0.786455    4.206278    0.443401
      3          6           0       -1.018772    3.672135   -0.828797
      4          6           0       -0.894178    2.302444   -1.038131
      5          6           0        0.009419    1.123289    2.390885
      6          6           0       -0.313117    1.976688    1.302338
      7          6           0       -0.530786    1.453273    0.004485
      8          6           0       -0.466266   -0.072475   -0.249898
      9          6           0        0.590786   -1.085543    3.311104
     10          6           0        0.189743   -0.278214    2.220724
     11          6           0        0.041564   -0.879756    0.950381
     12          6           0        0.312064   -2.235179    0.794056
     13          6           0        0.717560   -3.012954    1.874566
     14          6           0        0.848263   -2.433063    3.140687
     15          1           0        0.145868    1.556224    3.374771
     16          6           0        0.524886   -0.147286   -1.389981
     17          8           0       -0.014099   -0.190015   -2.576844
     18          1           0        0.596117   -0.083323   -3.355119
     19          6           0       -1.876011   -0.594386   -0.593601
     20          6           0       -2.969968    0.009184    0.029746
     21          6           0       -4.253708   -0.500249   -0.145348
     22          6           0       -4.459903   -1.618503   -0.948834
     23          6           0       -3.371963   -2.226246   -1.571184
     24          6           0       -2.086666   -1.722087   -1.391436
     25          6           0        1.950103   -0.133455   -1.211707
     26          6           0        2.543204    0.403824   -0.051207
     27          6           0        3.919910    0.393452    0.085242
     28          6           0        4.721336   -0.165712   -0.912234
     29          6           0        4.145364   -0.708877   -2.061071
     30          6           0        2.770297   -0.686321   -2.219664
     31          1           0       -0.279349    3.780363    2.483350
     32          1           0       -0.882097    5.271987    0.608440
     33          1           0       -1.300566    4.318109   -1.650044
     34          1           0       -1.099848    1.894399   -2.019445
     35          1           0        0.703546   -0.625160    4.285658
     36          1           0        0.206386   -2.702682   -0.177389
     37          1           0        0.928188   -4.064832    1.730516
     38          1           0        1.157740   -3.036891    3.984302
     39          1           0       -2.820006    0.879934    0.654642
     40          1           0       -5.090615   -0.019982    0.346385
     41          1           0       -5.458301   -2.013667   -1.089688
     42          1           0       -3.519751   -3.095062   -2.200718
     43          1           0       -1.263850   -2.209847   -1.895431
     44          1           0        1.937589    0.862491    0.715130
     45          1           0        4.372498    0.823475    0.968360
     46          1           0        5.797178   -0.180616   -0.791931
     47          1           0        4.767368   -1.155411   -2.824842
     48          1           0        2.345437   -1.162187   -3.095865
 ---------------------------------------------------------------------
 Rotational constants (GHZ):      0.2350493      0.1774395      0.1629719
 Standard basis: CC-pVDZ (5D, 7F)
 There are   520 symmetry adapted cartesian basis functions of A   symmetry.
 There are   492 symmetry adapted basis functions of A   symmetry.
   492 basis functions,  1064 primitive gaussians,   520 cartesian basis functions
    95 alpha electrons       94 beta electrons
       nuclear repulsion energy      2520.5835097498 Hartrees.
 NAtoms=   48 NActive=   48 NUniq=   48 SFac= 1.00D+00 NAtFMM=   60 NAOKFM=F Big=F
 Integral buffers will be    131072 words long.
 Raffenetti 2 integral format.
 Two-electron integral symmetry is turned on.
 Nuclear repulsion after empirical dispersion term =     2520.5378162988 Hartrees.
 ------------------------------------------------------------------------------
 Polarizable Continuum Model (PCM)
 =================================
 Model                : C-PCM.
 Atomic radii         : UFF (Universal Force Field).
 Polarization charges : Total charges.
 Charge compensation  : None.
 Solution method      : On-the-fly selection.
 Cavity type          : Scaled VdW (van der Waals Surface) (Alpha=1.100).
 Cavity algorithm     : GePol (No added spheres)
                        Default sphere list used, NSphG=   48.
                        Lebedev-Laikov grids with approx.  5.0 points / Ang**2.
                        Smoothing algorithm: Karplus/York (Gamma=1.0000).
                        Polarization charges: spherical gaussians, with
                                              point-specific exponents (IZeta= 3).
                        Self-potential: point-specific (ISelfS= 7).
                        Self-field    : sphere-specific E.n sum rule (ISelfD= 2).
 Solvent              : n,n-DiMethylFormamide, Eps=  37.219000 Eps(inf)=   2.046330
 ------------------------------------------------------------------------------
 One-electron integrals computed using PRISM.
 NBasis=   492 RedAO= T EigKep=  1.33D-04  NBF=   492
 NBsUse=   492 1.00D-06 EigRej= -1.00D+00 NBFU=   492
 Initial guess from the checkpoint file:  "D:\Yaroslav\pink-mystery\mono_pin_rear1\uv1_conf1\mono_pin_rear1.chk"
 B after Tr=     0.000000    0.000000    0.000000
         Rot=    1.000000    0.000000    0.000000    0.000000 Ang=   0.00 deg.
 Initial guess <Sx>= 0.0000 <Sy>= 0.0000 <Sz>= 0.5000 <S**2>= 0.8040 S= 0.5266
 Requested convergence on RMS density matrix=1.00D-08 within 128 cycles.
 Requested convergence on MAX density matrix=1.00D-06.
 Requested convergence on             energy=1.00D-06.
 No special actions if energy rises.
 Inv3:  Mode=1 IEnd=    33306672.
 Iteration    1 A*A^-1 deviation from unit magnitude is 5.55D-15 for    813.
 Iteration    1 A*A^-1 deviation from orthogonality  is 4.04D-15 for   2135   1820.
 Iteration    1 A^-1*A deviation from unit magnitude is 5.11D-15 for    813.
 Iteration    1 A^-1*A deviation from orthogonality  is 2.92D-15 for   1972   1540.
 Error on total polarization charges =  0.01255
 SCF Done:  E(UwB97XD) =  -1115.64543565     A.U. after   16 cycles
            NFock= 16  Conv=0.78D-08     -V/T= 2.0066
 <Sx>= 0.0000 <Sy>= 0.0000 <Sz>= 0.5000 <S**2>= 0.8062 S= 0.5277
 <L.S>= 0.000000000000E+00
 Annihilation of the first spin contaminant:
 S**2 before annihilation     0.8062,   after     0.7528
 DoSCS=F DFT=T ScalE2(SS,OS)=  1.000000  1.000000
 ExpMin= 1.22D-01 ExpMax= 1.17D+04 ExpMxC= 4.01D+02 IAcc=3 IRadAn=         5 AccDes= 0.00D+00
 HarFok:  IExCor=  205 AccDes= 0.00D+00 IRadAn=         5 IDoV=-2 UseB2=F ITyADJ=14
 ICtDFT= 12500011 ScaDFX=  1.000000  1.000000  1.000000  1.000000
 Range of M.O.s used for correlation:    29   492
 NBasis=   492 NAE=    95 NBE=    94 NFC=    28 NFV=     0
 NROrb=    464 NOA=    67 NOB=    66 NVA=   397 NVB=   398

 **** Warning!!: The largest alpha MO coefficient is  0.20243928D+02


 **** Warning!!: The largest beta MO coefficient is  0.20269272D+02

 Would need an additional         41615000000 words for in-memory AO integral storage.
 NEqPCM:  Using non-equilibrium solvation (IEInf=1, Eps=  37.2190, EpsInf=   2.0463)
 Inv3:  Mode=1 IEnd=    33306672.
 Iteration    1 A*A^-1 deviation from unit magnitude is 5.55D-15 for    813.
 Iteration    1 A*A^-1 deviation from orthogonality  is 4.04D-15 for   2135   1820.
 Iteration    1 A^-1*A deviation from unit magnitude is 5.11D-15 for    813.
 Iteration    1 A^-1*A deviation from orthogonality  is 2.92D-15 for   1972   1540.
 Orbital symmetries:
 Alpha Orbitals:
       Occupied  (A) (A) (A) (A) (A) (A) (A) (A) (A) (A) (A) (A)
                 (A) (A) (A) (A) (A) (A) (A) (A) (A) (A) (A) (A)
                 (A) (A) (A) (A) (A) (A) (A) (A) (A) (A) (A) (A)
                 (A) (A) (A) (A) (A) (A) (A) (A) (A) (A) (A) (A)
                 (A) (A) (A) (A) (A) (A) (A) (A) (A) (A) (A) (A)
                 (A) (A) (A) (A) (A) (A) (A) (A) (A) (A) (A) (A)
                 (A) (A) (A) (A) (A) (A) (A) (A) (A) (A) (A) (A)
                 (A) (A) (A) (A) (A) (A) (A) (A) (A) (A) (A)
       Virtual   (A) (A) (A) (A) (A) (A) (A) (A) (A) (A) (A) (A)
                 (A) (A) (A) (A) (A) (A) (A) (A) (A) (A) (A) (A)
                 (A) (A) (A) (A) (A) (A) (A) (A) (A) (A) (A) (A)
                 (A) (A) (A) (A) (A) (A) (A) (A) (A) (A) (A) (A)
                 (A) (A) (A) (A) (A) (A) (A) (A) (A) (A) (A) (A)
                 (A) (A) (A) (A) (A) (A) (A) (A) (A) (A) (A) (A)
                 (A) (A) (A) (A) (A) (A) (A) (A) (A) (A) (A) (A)
                 (A) (A) (A) (A) (A) (A) (A) (A) (A) (A) (A) (A)
                 (A) (A) (A) (A) (A) (A) (A) (A) (A) (A) (A) (A)
                 (A) (A) (A) (A) (A) (A) (A) (A) (A) (A) (A) (A)
                 (A) (A) (A) (A) (A) (A) (A) (A) (A) (A) (A) (A)
                 (A) (A) (A) (A) (A) (A) (A) (A) (A) (A) (A) (A)
                 (A) (A) (A) (A) (A) (A) (A) (A) (A) (A) (A) (A)
                 (A) (A) (A) (A) (A) (A) (A) (A) (A) (A) (A) (A)
                 (A) (A) (A) (A) (A) (A) (A) (A) (A) (A) (A) (A)
                 (A) (A) (A) (A) (A) (A) (A) (A) (A) (A) (A) (A)
                 (A) (A) (A) (A) (A) (A) (A) (A) (A) (A) (A) (A)
                 (A) (A) (A) (A) (A) (A) (A) (A) (A) (A) (A) (A)
                 (A) (A) (A) (A) (A) (A) (A) (A) (A) (A) (A) (A)
                 (A) (A) (A) (A) (A) (A) (A) (A) (A) (A) (A) (A)
                 (A) (A) (A) (A) (A) (A) (A) (A) (A) (A) (A) (A)
                 (A) (A) (A) (A) (A) (A) (A) (A) (A) (A) (A) (A)
                 (A) (A) (A) (A) (A) (A) (A) (A) (A) (A) (A) (A)
                 (A) (A) (A) (A) (A) (A) (A) (A) (A) (A) (A) (A)
                 (A) (A) (A) (A) (A) (A) (A) (A) (A) (A) (A) (A)
                 (A) (A) (A) (A) (A) (A) (A) (A) (A) (A) (A) (A)
                 (A) (A) (A) (A) (A) (A) (A) (A) (A) (A) (A) (A)
                 (A) (A) (A) (A) (A) (A) (A) (A) (A) (A) (A) (A)
                 (A) (A) (A) (A) (A) (A) (A) (A) (A) (A) (A) (A)
                 (A) (A) (A) (A) (A) (A) (A) (A) (A) (A) (A) (A)
                 (A) (A) (A) (A) (A) (A) (A) (A) (A) (A) (A) (A)
                 (A) (A) (A) (A) (A) (A) (A) (A) (A) (A) (A) (A)
                 (A) (A) (A) (A) (A) (A) (A) (A) (A) (A) (A) (A)
                 (A)
 Beta  Orbitals:
       Occupied  (A) (A) (A) (A) (A) (A) (A) (A) (A) (A) (A) (A)
                 (A) (A) (A) (A) (A) (A) (A) (A) (A) (A) (A) (A)
                 (A) (A) (A) (A) (A) (A) (A) (A) (A) (A) (A) (A)
                 (A) (A) (A) (A) (A) (A) (A) (A) (A) (A) (A) (A)
                 (A) (A) (A) (A) (A) (A) (A) (A) (A) (A) (A) (A)
                 (A) (A) (A) (A) (A) (A) (A) (A) (A) (A) (A) (A)
                 (A) (A) (A) (A) (A) (A) (A) (A) (A) (A) (A) (A)
                 (A) (A) (A) (A) (A) (A) (A) (A) (A) (A)
       Virtual   (A) (A) (A) (A) (A) (A) (A) (A) (A) (A) (A) (A)
                 (A) (A) (A) (A) (A) (A) (A) (A) (A) (A) (A) (A)
                 (A) (A) (A) (A) (A) (A) (A) (A) (A) (A) (A) (A)
                 (A) (A) (A) (A) (A) (A) (A) (A) (A) (A) (A) (A)
                 (A) (A) (A) (A) (A) (A) (A) (A) (A) (A) (A) (A)
                 (A) (A) (A) (A) (A) (A) (A) (A) (A) (A) (A) (A)
                 (A) (A) (A) (A) (A) (A) (A) (A) (A) (A) (A) (A)
                 (A) (A) (A) (A) (A) (A) (A) (A) (A) (A) (A) (A)
                 (A) (A) (A) (A) (A) (A) (A) (A) (A) (A) (A) (A)
                 (A) (A) (A) (A) (A) (A) (A) (A) (A) (A) (A) (A)
                 (A) (A) (A) (A) (A) (A) (A) (A) (A) (A) (A) (A)
                 (A) (A) (A) (A) (A) (A) (A) (A) (A) (A) (A) (A)
                 (A) (A) (A) (A) (A) (A) (A) (A) (A) (A) (A) (A)
                 (A) (A) (A) (A) (A) (A) (A) (A) (A) (A) (A) (A)
                 (A) (A) (A) (A) (A) (A) (A) (A) (A) (A) (A) (A)
                 (A) (A) (A) (A) (A) (A) (A) (A) (A) (A) (A) (A)
                 (A) (A) (A) (A) (A) (A) (A) (A) (A) (A) (A) (A)
                 (A) (A) (A) (A) (A) (A) (A) (A) (A) (A) (A) (A)
                 (A) (A) (A) (A) (A) (A) (A) (A) (A) (A) (A) (A)
                 (A) (A) (A) (A) (A) (A) (A) (A) (A) (A) (A) (A)
                 (A) (A) (A) (A) (A) (A) (A) (A) (A) (A) (A) (A)
                 (A) (A) (A) (A) (A) (A) (A) (A) (A) (A) (A) (A)
                 (A) (A) (A) (A) (A) (A) (A) (A) (A) (A) (A) (A)
                 (A) (A) (A) (A) (A) (A) (A) (A) (A) (A) (A) (A)
                 (A) (A) (A) (A) (A) (A) (A) (A) (A) (A) (A) (A)
                 (A) (A) (A) (A) (A) (A) (A) (A) (A) (A) (A) (A)
                 (A) (A) (A) (A) (A) (A) (A) (A) (A) (A) (A) (A)
                 (A) (A) (A) (A) (A) (A) (A) (A) (A) (A) (A) (A)
                 (A) (A) (A) (A) (A) (A) (A) (A) (A) (A) (A) (A)
                 (A) (A) (A) (A) (A) (A) (A) (A) (A) (A) (A) (A)
                 (A) (A) (A) (A) (A) (A) (A) (A) (A) (A) (A) (A)
                 (A) (A) (A) (A) (A) (A) (A) (A) (A) (A) (A) (A)
                 (A) (A) (A) (A) (A) (A) (A) (A) (A) (A) (A) (A)
                 (A) (A)
   240 initial guesses have been made.
 Convergence on wavefunction:    0.001000000000000
 Iteration     1 Dimension   240 NMult     0 NNew    240
 CISAX will form   240 AO SS matrices at one time.
 New state      3 was old state     19
 New state      4 was old state     15
 New state      5 was old state      3
 New state      6 was old state      5
 New state      7 was old state     10
 New state      8 was old state     12
 New state      9 was old state      4
 New state     10 was old state     21
 New state     11 was old state      9
 New state     12 was old state      8
 New state     13 was old state     11
 New state     14 was old state      7
 New state     15 was old state      6
 New state     16 was old state     13
 New state     17 was old state     18
 New state     18 was old state     33
 New state     19 was old state     16
 New state     20 was old state     23
 New state     21 was old state     17
 New state     22 was old state     32
 New state     23 was old state     35
 New state     24 was old state     97
 New state     25 was old state     22
 New state     26 was old state     20
 New state     27 was old state     90
 New state     28 was old state     14
 New state     29 was old state     71
 New state     30 was old state     65
 New state     31 was old state     26
 New state     32 was old state     25
 New state     33 was old state     24
 New state     34 was old state     28
 New state     35 was old state     27
 New state     36 was old state     43
 New state     37 was old state     34
 New state     38 was old state     45
 New state     39 was old state    127
 New state     40 was old state     50
 New state     41 was old state     62
 New state     42 was old state     29
 New state     43 was old state     31
 New state     44 was old state     64
 New state     45 was old state     36
 New state     46 was old state     30
 New state     47 was old state     37
 New state     48 was old state     38
 New state     49 was old state     99
 New state     50 was old state     67
 New state     51 was old state     75
 New state     52 was old state     95
 New state     53 was old state     56
 New state     54 was old state     76
 New state     55 was old state     44
 New state     56 was old state     82
 New state     57 was old state     93
 New state     58 was old state     40
 New state     59 was old state     48
 New state     60 was old state    165
 Iteration     2 Dimension   360 NMult   240 NNew    120
 New state      3 was old state      4
 New state      4 was old state      3
 New state     11 was old state     18
 New state     13 was old state     11
 New state     14 was old state     13
 New state     15 was old state     16
 New state     16 was old state     15
 New state     17 was old state     19
 New state     18 was old state     14
 New state     19 was old state     17
 New state     20 was old state     21
 New state     21 was old state     22
 New state     22 was old state     20
 New state     28 was old state     32
 New state     29 was old state     28
 New state     30 was old state     29
 New state     31 was old state     30
 New state     32 was old state     31
 New state     36 was old state     37
 New state     37 was old state     36
 New state     39 was old state     40
 New state     40 was old state     39
 New state     41 was old state     43
 New state     42 was old state     41
 New state     43 was old state     44
 New state     44 was old state     45
 New state     45 was old state     46
 New state     46 was old state     42
 New state     47 was old state     54
 New state     48 was old state     47
 New state     49 was old state     48
 New state     51 was old state     49
 New state     53 was old state     51
 New state     54 was old state     57
 New state     56 was old state     53
 New state     57 was old state     56
 New state     58 was old state     59
 New state     59 was old state     58
 Iteration     3 Dimension   480 NMult   360 NNew    120
 New state     46 was old state     47
 New state     47 was old state     46
 New state     58 was old state     60
 New state     59 was old state     58
 New state     60 was old state     59
 Iteration     4 Dimension   600 NMult   480 NNew    120
 Iteration     5 Dimension   692 NMult   600 NNew     92
 Iteration     6 Dimension   714 NMult   692 NNew     22
 Iteration     7 Dimension   720 NMult   714 NNew      6
 ***********************************************************************
 Excited states from <AA,BB:AA,BB> singles matrix:
 ***********************************************************************
 
 ExtSpn:  IState=     1 X2= 1.003 Y2= 0.003 X2-Y2-1=-1.11D-16
          S2Grnd=  0.806 Ra=  0.049 Rb=  0.001 T=  0.006 S2Ext=  0.056 S2=  0.862
 ExtSpn:  IState=     2 X2= 1.031 Y2= 0.031 X2-Y2-1= 6.66D-16
          S2Grnd=  0.806 Ra=  0.478 Rb=  0.492 T=  0.971 S2Ext=  1.942 S2=  2.748
 ExtSpn:  IState=     3 X2= 1.026 Y2= 0.026 X2-Y2-1=-4.44D-16
          S2Grnd=  0.806 Ra=  0.093 Rb=  0.102 T=  0.135 S2Ext=  0.330 S2=  1.136
 ExtSpn:  IState=     4 X2= 1.012 Y2= 0.012 X2-Y2-1= 0.00D+00
          S2Grnd=  0.806 Ra=  0.482 Rb=  0.480 T=  0.960 S2Ext=  1.922 S2=  2.728
 ExtSpn:  IState=     5 X2= 1.004 Y2= 0.004 X2-Y2-1=-7.77D-16
          S2Grnd=  0.806 Ra=  0.226 Rb=  0.402 T= -0.438 S2Ext=  0.191 S2=  0.997
 ExtSpn:  IState=     6 X2= 1.005 Y2= 0.005 X2-Y2-1=-3.33D-16
          S2Grnd=  0.806 Ra=  0.183 Rb=  0.205 T= -0.161 S2Ext=  0.227 S2=  1.033
 ExtSpn:  IState=     7 X2= 1.007 Y2= 0.007 X2-Y2-1= 4.44D-16
          S2Grnd=  0.806 Ra=  0.350 Rb=  0.266 T=  0.239 S2Ext=  0.854 S2=  1.660
 ExtSpn:  IState=     8 X2= 1.014 Y2= 0.014 X2-Y2-1= 2.44D-15
          S2Grnd=  0.806 Ra=  0.312 Rb=  0.525 T=  0.711 S2Ext=  1.548 S2=  2.354
 ExtSpn:  IState=     9 X2= 1.009 Y2= 0.009 X2-Y2-1=-9.99D-16
          S2Grnd=  0.806 Ra=  0.203 Rb=  0.421 T=  0.399 S2Ext=  1.023 S2=  1.829
 ExtSpn:  IState=    10 X2= 1.006 Y2= 0.006 X2-Y2-1= 2.22D-16
          S2Grnd=  0.806 Ra=  0.134 Rb=  0.630 T=  0.385 S2Ext=  1.149 S2=  1.955
 ExtSpn:  IState=    11 X2= 1.033 Y2= 0.033 X2-Y2-1= 1.55D-15
          S2Grnd=  0.806 Ra=  0.389 Rb=  0.334 T=  0.646 S2Ext=  1.369 S2=  2.175
 ExtSpn:  IState=    12 X2= 1.020 Y2= 0.020 X2-Y2-1= 6.66D-16
          S2Grnd=  0.806 Ra=  0.250 Rb=  0.242 T=  0.231 S2Ext=  0.723 S2=  1.529
 ExtSpn:  IState=    13 X2= 1.005 Y2= 0.005 X2-Y2-1=-3.44D-15
          S2Grnd=  0.806 Ra=  0.735 Rb=  0.089 T= -0.257 S2Ext=  0.566 S2=  1.372
 ExtSpn:  IState=    14 X2= 1.006 Y2= 0.006 X2-Y2-1= 4.44D-16
          S2Grnd=  0.806 Ra=  0.519 Rb=  0.383 T= -0.768 S2Ext=  0.134 S2=  0.940
 ExtSpn:  IState=    15 X2= 1.010 Y2= 0.010 X2-Y2-1=-1.67D-15
          S2Grnd=  0.806 Ra=  0.091 Rb=  0.499 T=  0.068 S2Ext=  0.659 S2=  1.465
 ExtSpn:  IState=    16 X2= 1.009 Y2= 0.009 X2-Y2-1= 2.22D-15
          S2Grnd=  0.806 Ra=  0.378 Rb=  0.323 T= -0.435 S2Ext=  0.266 S2=  1.072
 ExtSpn:  IState=    17 X2= 1.005 Y2= 0.005 X2-Y2-1=-5.55D-16
          S2Grnd=  0.806 Ra=  0.317 Rb=  0.462 T= -0.656 S2Ext=  0.122 S2=  0.928
 ExtSpn:  IState=    18 X2= 1.002 Y2= 0.002 X2-Y2-1=-1.44D-15
          S2Grnd=  0.806 Ra=  0.360 Rb=  0.487 T=  0.643 S2Ext=  1.491 S2=  2.297
 ExtSpn:  IState=    19 X2= 1.005 Y2= 0.005 X2-Y2-1= 1.11D-15
          S2Grnd=  0.806 Ra=  0.224 Rb=  0.333 T= -0.244 S2Ext=  0.314 S2=  1.120
 ExtSpn:  IState=    20 X2= 1.003 Y2= 0.003 X2-Y2-1=-2.00D-15
          S2Grnd=  0.806 Ra=  0.626 Rb=  0.196 T= -0.462 S2Ext=  0.360 S2=  1.166
 ExtSpn:  IState=    21 X2= 1.008 Y2= 0.008 X2-Y2-1= 2.22D-15
          S2Grnd=  0.806 Ra=  0.708 Rb=  0.169 T=  0.373 S2Ext=  1.250 S2=  2.056
 ExtSpn:  IState=    22 X2= 1.005 Y2= 0.005 X2-Y2-1=-1.44D-15
          S2Grnd=  0.806 Ra=  0.459 Rb=  0.399 T=  0.783 S2Ext=  1.641 S2=  2.447
 ExtSpn:  IState=    23 X2= 1.013 Y2= 0.013 X2-Y2-1= 1.33D-15
          S2Grnd=  0.806 Ra=  0.363 Rb=  0.392 T=  0.729 S2Ext=  1.484 S2=  2.290
 ExtSpn:  IState=    24 X2= 1.017 Y2= 0.017 X2-Y2-1=-1.11D-15
          S2Grnd=  0.806 Ra=  0.448 Rb=  0.463 T=  0.903 S2Ext=  1.814 S2=  2.620
 ExtSpn:  IState=    25 X2= 1.009 Y2= 0.009 X2-Y2-1= 2.22D-16
          S2Grnd=  0.806 Ra=  0.345 Rb=  0.361 T=  0.629 S2Ext=  1.335 S2=  2.142
 ExtSpn:  IState=    26 X2= 1.004 Y2= 0.004 X2-Y2-1=-1.55D-15
          S2Grnd=  0.806 Ra=  0.411 Rb=  0.321 T=  0.110 S2Ext=  0.842 S2=  1.648
 ExtSpn:  IState=    27 X2= 1.003 Y2= 0.003 X2-Y2-1=-9.99D-16
          S2Grnd=  0.806 Ra=  0.405 Rb=  0.433 T=  0.728 S2Ext=  1.566 S2=  2.372
 ExtSpn:  IState=    28 X2= 1.004 Y2= 0.004 X2-Y2-1=-6.66D-16
          S2Grnd=  0.806 Ra=  0.536 Rb=  0.426 T= -0.038 S2Ext=  0.924 S2=  1.731
 ExtSpn:  IState=    29 X2= 1.001 Y2= 0.001 X2-Y2-1=-2.22D-15
          S2Grnd=  0.806 Ra=  0.132 Rb=  0.192 T=  0.146 S2Ext=  0.471 S2=  1.277
 ExtSpn:  IState=    30 X2= 1.001 Y2= 0.001 X2-Y2-1=-2.11D-15
          S2Grnd=  0.806 Ra=  0.092 Rb=  0.154 T=  0.070 S2Ext=  0.316 S2=  1.122
 ExtSpn:  IState=    31 X2= 1.003 Y2= 0.003 X2-Y2-1= 1.55D-15
          S2Grnd=  0.806 Ra=  0.180 Rb=  0.380 T=  0.439 S2Ext=  0.999 S2=  1.805
 ExtSpn:  IState=    32 X2= 1.001 Y2= 0.001 X2-Y2-1= 1.11D-15
          S2Grnd=  0.806 Ra=  0.077 Rb=  0.845 T=  0.313 S2Ext=  1.236 S2=  2.042
 ExtSpn:  IState=    33 X2= 1.003 Y2= 0.003 X2-Y2-1= 2.22D-16
          S2Grnd=  0.806 Ra=  0.399 Rb=  0.148 T=  0.396 S2Ext=  0.943 S2=  1.749
 ExtSpn:  IState=    34 X2= 1.002 Y2= 0.002 X2-Y2-1=-1.11D-15
          S2Grnd=  0.806 Ra=  0.191 Rb=  0.151 T=  0.290 S2Ext=  0.633 S2=  1.439
 ExtSpn:  IState=    35 X2= 1.001 Y2= 0.001 X2-Y2-1= 0.00D+00
          S2Grnd=  0.806 Ra=  0.200 Rb=  0.204 T=  0.331 S2Ext=  0.735 S2=  1.541
 ExtSpn:  IState=    36 X2= 1.001 Y2= 0.001 X2-Y2-1=-5.55D-16
          S2Grnd=  0.806 Ra=  0.259 Rb=  0.257 T=  0.369 S2Ext=  0.885 S2=  1.692
 ExtSpn:  IState=    37 X2= 1.002 Y2= 0.002 X2-Y2-1= 4.44D-16
          S2Grnd=  0.806 Ra=  0.257 Rb=  0.432 T= -0.210 S2Ext=  0.479 S2=  1.285
 ExtSpn:  IState=    38 X2= 1.003 Y2= 0.003 X2-Y2-1=-4.44D-16
          S2Grnd=  0.806 Ra=  0.406 Rb=  0.454 T= -0.124 S2Ext=  0.736 S2=  1.543
 ExtSpn:  IState=    39 X2= 1.003 Y2= 0.003 X2-Y2-1= 0.00D+00
          S2Grnd=  0.806 Ra=  0.226 Rb=  0.362 T=  0.231 S2Ext=  0.819 S2=  1.625
 ExtSpn:  IState=    40 X2= 1.003 Y2= 0.003 X2-Y2-1= 1.33D-15
          S2Grnd=  0.806 Ra=  0.436 Rb=  0.458 T=  0.767 S2Ext=  1.661 S2=  2.467
 ExtSpn:  IState=    41 X2= 1.002 Y2= 0.002 X2-Y2-1=-7.77D-16
          S2Grnd=  0.806 Ra=  0.496 Rb=  0.184 T=  0.152 S2Ext=  0.832 S2=  1.638
 ExtSpn:  IState=    42 X2= 1.003 Y2= 0.003 X2-Y2-1=-3.33D-16
          S2Grnd=  0.806 Ra=  0.399 Rb=  0.356 T=  0.365 S2Ext=  1.119 S2=  1.925
 ExtSpn:  IState=    43 X2= 1.004 Y2= 0.004 X2-Y2-1=-7.77D-16
          S2Grnd=  0.806 Ra=  0.400 Rb=  0.375 T=  0.620 S2Ext=  1.396 S2=  2.202
 ExtSpn:  IState=    44 X2= 1.001 Y2= 0.001 X2-Y2-1=-8.88D-16
          S2Grnd=  0.806 Ra=  0.087 Rb=  0.270 T=  0.122 S2Ext=  0.479 S2=  1.285
 ExtSpn:  IState=    45 X2= 1.002 Y2= 0.002 X2-Y2-1= 2.00D-15
          S2Grnd=  0.806 Ra=  0.510 Rb=  0.290 T=  0.505 S2Ext=  1.305 S2=  2.112
 ExtSpn:  IState=    46 X2= 1.004 Y2= 0.004 X2-Y2-1=-3.33D-16
          S2Grnd=  0.806 Ra=  0.311 Rb=  0.258 T=  0.019 S2Ext=  0.589 S2=  1.395
 ExtSpn:  IState=    47 X2= 1.001 Y2= 0.001 X2-Y2-1= 1.33D-15
          S2Grnd=  0.806 Ra=  0.080 Rb=  0.162 T=  0.061 S2Ext=  0.304 S2=  1.110
 ExtSpn:  IState=    48 X2= 1.001 Y2= 0.001 X2-Y2-1=-1.22D-15
          S2Grnd=  0.806 Ra=  0.556 Rb=  0.376 T= -0.269 S2Ext=  0.662 S2=  1.468
 ExtSpn:  IState=    49 X2= 1.002 Y2= 0.002 X2-Y2-1= 3.55D-15
          S2Grnd=  0.806 Ra=  0.517 Rb=  0.330 T=  0.097 S2Ext=  0.945 S2=  1.751
 ExtSpn:  IState=    50 X2= 1.004 Y2= 0.004 X2-Y2-1=-5.55D-16
          S2Grnd=  0.806 Ra=  0.406 Rb=  0.487 T= -0.250 S2Ext=  0.643 S2=  1.449
 ExtSpn:  IState=    51 X2= 1.002 Y2= 0.002 X2-Y2-1=-7.77D-16
          S2Grnd=  0.806 Ra=  0.275 Rb=  0.437 T=  0.319 S2Ext=  1.031 S2=  1.837
 ExtSpn:  IState=    52 X2= 1.001 Y2= 0.001 X2-Y2-1=-1.44D-15
          S2Grnd=  0.806 Ra=  0.629 Rb=  0.321 T=  0.469 S2Ext=  1.420 S2=  2.226
 ExtSpn:  IState=    53 X2= 1.002 Y2= 0.002 X2-Y2-1=-2.55D-15
          S2Grnd=  0.806 Ra=  0.223 Rb=  0.567 T= -0.190 S2Ext=  0.600 S2=  1.406
 ExtSpn:  IState=    54 X2= 1.004 Y2= 0.004 X2-Y2-1= 6.66D-16
          S2Grnd=  0.806 Ra=  0.393 Rb=  0.359 T=  0.416 S2Ext=  1.168 S2=  1.974
 ExtSpn:  IState=    55 X2= 1.002 Y2= 0.002 X2-Y2-1=-1.89D-15
          S2Grnd=  0.806 Ra=  0.331 Rb=  0.484 T=  0.230 S2Ext=  1.045 S2=  1.851
 ExtSpn:  IState=    56 X2= 1.002 Y2= 0.002 X2-Y2-1= 3.33D-15
          S2Grnd=  0.806 Ra=  0.314 Rb=  0.270 T= -0.062 S2Ext=  0.522 S2=  1.329
 ExtSpn:  IState=    57 X2= 1.001 Y2= 0.001 X2-Y2-1=-2.22D-15
          S2Grnd=  0.806 Ra=  0.543 Rb=  0.202 T= -0.232 S2Ext=  0.513 S2=  1.319
 ExtSpn:  IState=    58 X2= 1.003 Y2= 0.003 X2-Y2-1= 1.78D-15
          S2Grnd=  0.806 Ra=  0.397 Rb=  0.405 T= -0.166 S2Ext=  0.636 S2=  1.442
 ExtSpn:  IState=    59 X2= 1.003 Y2= 0.003 X2-Y2-1=-1.11D-15
          S2Grnd=  0.806 Ra=  0.371 Rb=  0.486 T= -0.539 S2Ext=  0.319 S2=  1.125
 ExtSpn:  IState=    60 X2= 1.002 Y2= 0.002 X2-Y2-1= 1.78D-15
          S2Grnd=  0.806 Ra=  0.393 Rb=  0.455 T= -0.701 S2Ext=  0.147 S2=  0.954
 Ground to excited state transition densities written to RWF  633
 Ground to excited state transition electric dipole moments (Au):
       state          X           Y           Z        Dip. S.      Osc.
         1         0.2349      0.0686     -0.5027      0.3126      0.0112
         2        -0.0191     -0.0198      0.0400      0.0024      0.0002
         3        -0.0713     -0.1941      0.2396      0.1001      0.0074
         4         0.0436      0.0042     -0.0618      0.0057      0.0004
         5         0.5382     -0.1695     -0.1949      0.3564      0.0288
         6         0.2301     -0.0572      0.0685      0.0609      0.0050
         7         0.1210      0.3188     -0.0447      0.1183      0.0100
         8        -0.0542      0.2273     -0.1212      0.0693      0.0059
         9         0.0187      0.1611     -0.4220      0.2044      0.0178
        10        -0.1494      0.5580      0.0683      0.3383      0.0304
        11        -0.2217      0.6945      0.0404      0.5331      0.0489
        12        -0.0976      0.9059     -0.0309      0.8311      0.0764
        13         0.3732     -0.5271     -0.3366      0.5304      0.0494
        14        -0.2731      0.1761     -0.3228      0.2098      0.0199
        15        -0.0834     -0.6245      0.4464      0.5963      0.0582
        16         0.1498      0.0317     -0.6736      0.4771      0.0471
        17         1.4552     -0.7806      0.0972      2.7365      0.2759
        18         0.2643     -0.7543      0.2676      0.7104      0.0721
        19         0.5214      1.0777     -0.4901      1.6735      0.1703
        20        -0.5244      0.9297     -0.3744      1.2795      0.1316
        21        -0.1517     -0.0194      0.1333      0.0412      0.0043
        22         0.3870     -0.3818      0.0696      0.3004      0.0318
        23         0.1005     -0.2214      0.1519      0.0822      0.0089
        24         0.0340     -0.1246      0.0946      0.0256      0.0028
        25         0.3149      0.1086      0.0750      0.1166      0.0130
        26        -0.8164     -0.0947     -0.2168      0.7225      0.0835
        27        -0.2188     -0.0905     -0.0768      0.0619      0.0072
        28        -0.6829     -0.0844     -0.2702      0.5465      0.0641
        29         0.1355      0.0309     -0.0002      0.0193      0.0023
        30         0.0367      0.1650      0.0028      0.0286      0.0035
        31         0.0316     -0.1128      0.0396      0.0153      0.0019
        32        -0.2163     -0.1718     -0.1613      0.1023      0.0126
        33        -0.1320      0.1291     -0.1402      0.0538      0.0068
        34        -0.3075      0.2223     -0.2423      0.2027      0.0260
        35         0.0892      0.1704      0.0045      0.0370      0.0048
        36        -0.0120      0.1846     -0.0579      0.0376      0.0049
        37         0.1604     -0.2063      0.0936      0.0770      0.0102
        38        -0.2857     -0.0824     -0.1771      0.1198      0.0161
        39        -0.0913      0.2511     -0.1511      0.0942      0.0127
        40         0.0394      0.0444      0.0207      0.0039      0.0005
        41         0.0712      0.1366      0.0816      0.0304      0.0041
        42         0.1360     -0.1003      0.0281      0.0293      0.0040
        43         0.1658     -0.2239      0.0782      0.0837      0.0115
        44         0.1103      0.0915     -0.0495      0.0230      0.0032
        45         0.1137      0.0450      0.2334      0.0694      0.0096
        46         0.1160     -0.0412      0.4579      0.2248      0.0313
        47        -0.1514     -0.0908     -0.0193      0.0315      0.0044
        48         0.0208     -0.3286     -0.1991      0.1481      0.0209
        49         0.2623     -0.0352      0.4894      0.3096      0.0441
        50        -0.5509      0.3015     -0.6184      0.7768      0.1111
        51        -0.2953      0.0651     -0.0534      0.0943      0.0136
        52         0.1689      0.0079      0.0967      0.0379      0.0055
        53         0.1226     -0.2001      0.0645      0.0592      0.0086
        54         0.2075      0.1627      0.1930      0.1067      0.0155
        55        -0.2077      0.0676     -0.1855      0.0821      0.0121
        56         0.1647     -0.2346     -0.0825      0.0889      0.0132
        57        -0.2974      0.2099      0.1628      0.1590      0.0237
        58        -0.0362     -0.1558     -0.2190      0.0735      0.0110
        59         0.0728     -0.6940      0.3705      0.6242      0.0943
        60        -0.0252     -0.0529      0.0301      0.0043      0.0007
 Ground to excited state transition velocity dipole moments (Au):
       state          X           Y           Z        Dip. S.      Osc.
         1        -0.0123     -0.0040      0.0287      0.0010      0.0123
         2         0.0019      0.0018     -0.0039      0.0000      0.0001
         3         0.0085      0.0194     -0.0256      0.0011      0.0067
         4        -0.0050      0.0000      0.0069      0.0001      0.0004
         5        -0.0655      0.0201      0.0194      0.0051      0.0279
         6        -0.0287      0.0075     -0.0092      0.0010      0.0052
         7        -0.0164     -0.0395      0.0025      0.0018      0.0097
         8         0.0065     -0.0279      0.0151      0.0010      0.0054
         9        -0.0019     -0.0186      0.0567      0.0036      0.0182
        10         0.0188     -0.0764     -0.0099      0.0063      0.0311
        11         0.0291     -0.0935     -0.0067      0.0096      0.0467
        12         0.0126     -0.1227      0.0031      0.0152      0.0736
        13        -0.0497      0.0737      0.0497      0.0104      0.0494
        14         0.0383     -0.0231      0.0450      0.0040      0.0189
        15         0.0117      0.0882     -0.0648      0.0121      0.0552
        16        -0.0216     -0.0010      0.1054      0.0116      0.0521
        17        -0.2172      0.1176     -0.0177      0.0613      0.2703
        18        -0.0403      0.1133     -0.0403      0.0161      0.0705
        19        -0.0771     -0.1647      0.0737      0.0385      0.1681
        20         0.0799     -0.1417      0.0578      0.0298      0.1287
        21         0.0221      0.0010     -0.0207      0.0009      0.0040
        22        -0.0604      0.0614     -0.0113      0.0075      0.0317
        23        -0.0162      0.0372     -0.0240      0.0022      0.0092
        24        -0.0057      0.0210     -0.0153      0.0007      0.0029
        25        -0.0513     -0.0173     -0.0109      0.0031      0.0122
        26         0.1389      0.0154      0.0366      0.0209      0.0802
        27         0.0375      0.0146      0.0125      0.0018      0.0067
        28         0.1174      0.0121      0.0457      0.0160      0.0607
        29        -0.0250     -0.0066     -0.0011      0.0007      0.0025
        30        -0.0069     -0.0268     -0.0008      0.0008      0.0028
        31        -0.0059      0.0201     -0.0075      0.0005      0.0018
        32         0.0395      0.0296      0.0301      0.0033      0.0120
        33         0.0247     -0.0237      0.0248      0.0018      0.0063
        34         0.0582     -0.0415      0.0452      0.0071      0.0248
        35        -0.0171     -0.0318     -0.0011      0.0013      0.0045
        36         0.0019     -0.0354      0.0114      0.0014      0.0047
        37        -0.0308      0.0405     -0.0207      0.0030      0.0101
        38         0.0562      0.0158      0.0343      0.0046      0.0152
        39         0.0177     -0.0511      0.0294      0.0038      0.0125
        40        -0.0078     -0.0093     -0.0033      0.0002      0.0005
        41        -0.0144     -0.0256     -0.0162      0.0011      0.0037
        42        -0.0277      0.0214     -0.0067      0.0013      0.0041
        43        -0.0339      0.0465     -0.0169      0.0036      0.0117
        44        -0.0215     -0.0161      0.0093      0.0008      0.0026
        45        -0.0231     -0.0092     -0.0475      0.0029      0.0092
        46        -0.0252      0.0086     -0.0934      0.0094      0.0301
        47         0.0322      0.0171      0.0049      0.0014      0.0043
        48        -0.0045      0.0705      0.0406      0.0066      0.0209
        49        -0.0559      0.0087     -0.1042      0.0141      0.0439
        50         0.1190     -0.0662      0.1337      0.0364      0.1132
        51         0.0632     -0.0143      0.0126      0.0044      0.0135
        52        -0.0368     -0.0022     -0.0219      0.0018      0.0057
        53        -0.0266      0.0437     -0.0150      0.0028      0.0087
        54        -0.0452     -0.0358     -0.0450      0.0054      0.0163
        55         0.0459     -0.0140      0.0412      0.0040      0.0121
        56        -0.0356      0.0513      0.0187      0.0043      0.0128
        57         0.0659     -0.0466     -0.0366      0.0078      0.0234
        58         0.0070      0.0369      0.0475      0.0037      0.0109
        59        -0.0159      0.1566     -0.0841      0.0318      0.0937
        60         0.0028      0.0108     -0.0086      0.0002      0.0006
 Ground to excited state transition magnetic dipole moments (Au):
       state          X           Y           Z
         1         0.4793      0.0515     -0.1740
         2        -0.1027     -0.0420      0.0248
         3        -0.3104     -0.1899      0.1097
         4         0.0609      0.0286     -0.0275
         5         0.3094      0.5901     -0.1802
         6        -0.1990      0.2903      0.0033
         7         0.0489      0.2939     -0.0528
         8         0.1314      0.1454     -0.0454
         9         0.6351      0.3216     -0.2075
        10         0.2609      0.0897     -0.0645
        11         0.9827      0.0988     -0.1400
        12         1.5095      0.2176     -0.2447
        13         0.1353      0.0696     -0.0901
        14         0.3578     -0.7202      0.3179
        15        -1.1489     -0.3266      0.2085
        16         0.1218     -0.1738      0.1486
        17        -0.4253      0.0331      0.2020
        18        -0.3424     -0.1085      0.0374
        19         0.1488      0.3752      0.0170
        20         0.1332     -0.1617      0.1777
        21        -0.2562     -0.1518      0.0607
        22        -0.0114      0.1429     -0.0720
        23         0.0291     -0.0079     -0.0250
        24         0.0467     -0.0223     -0.0255
        25        -0.1825      0.1095      0.0176
        26         0.1975     -0.3835      0.1228
        27        -0.0317     -0.0938     -0.0187
        28         0.0486     -0.3961      0.1515
        29        -0.0529     -0.0131     -0.0287
        30         0.3576      0.1928     -0.2116
        31        -0.0105      0.0618     -0.1522
        32         0.0197     -0.1247     -0.1025
        33         0.1087      0.0599     -0.0876
        34         0.3172      0.0178     -0.0657
        35         0.1764      0.1283     -0.0445
        36         0.3189      0.0678     -0.0795
        37        -0.2404     -0.1096      0.0885
        38         0.2654      0.0904     -0.2453
        39         0.0009     -0.0088      0.0942
        40        -0.1423     -0.0389      0.0300
        41         0.2512      0.1299      0.0274
        42         0.0324      0.0616      0.1066
        43        -0.0776      0.0164      0.0121
        44        -0.0923      0.0433     -0.0311
        45        -0.1600     -0.0236      0.1727
        46        -0.1743     -0.2553      0.0020
        47         0.0312     -0.0040      0.0675
        48        -0.1583      0.0247     -0.2850
        49        -0.1610     -0.0745      0.2511
        50         0.5771      0.1156     -0.1976
        51         0.5750      0.0810     -0.3324
        52        -0.0881      0.0415     -0.0403
        53         0.0504      0.0275      0.1055
        54        -0.2687     -0.0651      0.1114
        55        -0.2463     -0.1641      0.3285
        56        -0.6797     -0.0158      0.1154
        57        -0.0431     -0.0468     -0.0926
        58         0.0567     -0.0958      0.1032
        59        -0.7509     -0.2716      0.3332
        60        -0.0530      0.0648      0.1919
 Ground to excited state transition velocity quadrupole moments (Au):
       state          XX          YY          ZZ          XY          XZ          YZ
         1        -0.1207      0.0809      0.0420     -0.0145      0.0473     -0.0370
         2         0.0247     -0.0230     -0.0049      0.0024     -0.0038     -0.0018
         3         0.1483     -0.0891     -0.0386      0.0146     -0.0208      0.0184
         4        -0.0544      0.0400      0.0068     -0.0065      0.0126     -0.0045
         5        -0.5744      0.2811      0.0987     -0.0812      0.0780      0.0123
         6        -0.1742      0.0759      0.0556     -0.0305      0.0050     -0.0079
         7        -0.1981     -0.1543      0.1125      0.0081      0.0157     -0.0555
         8        -0.0569     -0.0721      0.1288      0.0006     -0.0062     -0.0255
         9        -0.3251      0.1681      0.2519     -0.0644      0.0262     -0.0219
        10         0.2792     -0.3878     -0.0032      0.1065     -0.0637      0.0146
        11         0.3341     -0.3055     -0.1002      0.1150     -0.0575     -0.0015
        12         0.2260     -0.2653     -0.1516      0.1288     -0.0165     -0.0355
        13        -0.5871      0.5466      0.0831     -0.1209      0.1487     -0.0230
        14         0.2344     -0.2096     -0.3269      0.1785      0.2495     -0.1502
        15         0.1909     -0.0401     -0.2025     -0.0590     -0.0797      0.0072
        16        -0.4537      0.1381      0.2155      0.0596      0.2995     -0.1240
        17        -1.0676      0.4514     -0.2545      0.1391      0.4748      0.1015
        18        -0.0096      0.1918     -0.2497      0.0230     -0.0125      0.2693
        19        -0.6492     -0.3273      0.4728      0.0836      0.3322     -0.4661
        20         0.1404     -0.4336      0.3055      0.0515      0.0565     -0.3254
        21         0.3218     -0.2913     -0.1410      0.0712     -0.0572      0.0598
        22        -0.3072      0.3178     -0.0411     -0.0242      0.0547      0.1131
        23        -0.0500      0.2815     -0.1609     -0.0584     -0.0121      0.0257
        24         0.0142      0.1534     -0.1128     -0.0288     -0.0200      0.0290
        25        -0.2979      0.0674      0.1141     -0.0221      0.1328     -0.2048
        26         0.6871      0.1540     -0.1900     -0.1345     -0.2016     -0.0122
        27         0.2340      0.0154     -0.0723     -0.0587     -0.0791     -0.0116
        28         0.8404      0.1271     -0.1561     -0.0849     -0.1473     -0.0636
        29         0.2541      0.0312      0.0082      0.0515      0.0101     -0.0282
        30        -0.4230     -0.0325      0.1160     -0.0278     -0.0599      0.0870
        31         0.0177      0.0832     -0.1195     -0.0837     -0.0637     -0.0201
        32         0.1010      0.0681     -0.0006     -0.0341     -0.0979      0.1835
        33        -0.0297     -0.1455      0.0563     -0.0474     -0.0416     -0.0883
        34        -0.0992     -0.2283      0.1499     -0.0065     -0.0675      0.0336
        35        -0.0464      0.1634     -0.0627     -0.0377      0.0652     -0.1797
        36        -0.2330      0.1184      0.0071     -0.0484      0.0110     -0.0773
        37         0.1908     -0.1460     -0.0247      0.1923      0.0157      0.3222
        38        -0.2124     -0.0091      0.0245     -0.1417     -0.1310      0.0783
        39        -0.2375     -0.4225      0.3155      0.0768      0.0567     -0.0283
        40         0.2039      0.0343      0.0087      0.0044      0.0157     -0.0811
        41        -0.3735      0.0020      0.0182     -0.0217      0.0047     -0.0765
        42        -0.2146     -0.0309      0.0658      0.0872      0.0267      0.1574
        43         0.0738      0.2297     -0.1264      0.0281      0.0273      0.1322
        44        -0.1001      0.0031      0.0551      0.0579      0.0325      0.0032
        45         0.1261      0.1127     -0.0878      0.0013      0.0738     -0.1772
        46         0.3596      0.6380     -0.4028     -0.0472      0.0765     -0.2253
        47         0.0598     -0.3165      0.0605      0.0570     -0.0948      0.1443
        48        -0.0534      0.3140     -0.0877     -0.0928      0.0154      0.0588
        49         0.5186     -0.2507     -0.1904      0.3261     -0.0634      0.3831
        50        -1.0956      0.3291      0.3519     -0.5914     -0.0216     -0.7196
        51        -0.3290      0.4070     -0.1544     -0.3443     -0.1520     -0.2622
        52         0.2061     -0.1498     -0.0911      0.1310      0.0504      0.1235
        53        -0.0846      0.0207     -0.2351      0.0143     -0.0651      0.2060
        54         0.5048     -0.9014     -0.0536      0.3876      0.0201      0.3073
        55        -0.0535     -0.0310      0.3626     -0.0791      0.0762     -0.2719
        56        -0.2688      0.0250      0.3731      0.0849      0.1265      0.0511
        57         0.5114     -0.5838      0.0974      0.0303     -0.1538     -0.0850
        58         0.2964     -0.2712      0.1151      0.2137     -0.0701      0.4245
        59        -0.1781      0.9844     -0.3409     -0.1559     -0.0990      0.2046
        60         0.1565      0.4159     -0.0735     -0.1468     -0.1136     -0.2638
 <0|del|b> * <b|rxdel|0> + <0|del|b> * <b|delr+rdel|0>
 Rotatory Strengths (R) in cgs (10**-40 erg-esu-cm/Gauss)
       state          XX          YY          ZZ    R(velocity)    E-M Angle
         1       -35.5809    -65.7776    -44.3351    -48.5645      133.49
         2        -0.6229     -1.0115     -0.9742     -0.8695      133.54
         3       -20.7111    -15.7424    -22.0312    -19.4949      136.25
         4        -0.7361     -1.3312     -1.0134     -1.0269      142.73
         5        15.3178    -67.1777    -17.5572    -23.1390      103.99
         6         6.8408     16.1589     22.0798     15.0265       44.07
         7       -30.9755     -0.1155    -38.9099    -23.3337      165.34
         8       -13.4742     -0.0178     -7.8660     -7.1194      126.66
         9       -56.6226    -25.1000    -20.9098    -34.2108      115.35
        10       -31.8687     18.0739      6.9664     -2.2761       93.32
        11       -37.1226     77.9022     63.7839     34.8545       78.01
        12       -74.6028     44.6620    -13.3226    -14.4211       92.54
        13       -41.2805    -10.2563     20.8112    -10.2419      109.70
        14       111.4523     35.4239     75.4945     74.1235       35.55
        15       -76.0074    -74.2138   -119.3979    -89.8730      114.71
        16        53.5811     22.5130    -12.9590     21.0450       61.69
        17      -135.5328    161.7897    407.1041    144.4537       37.52
        18       -30.9514      5.4998     25.4174     -0.0114       90.00
        19         0.7397     45.2958   -379.7083   -111.2243      155.30
        20       101.1841    -18.4662    118.0918     66.9365       22.47
        21        -6.4410     -9.3998    -16.3982    -10.7463      140.14
        22        14.4824    -12.4950     43.8057     15.2643       42.50
        23         4.7269     -3.6975     -1.7467     -0.2391       95.09
        24         1.6988     -1.0531     -2.1508     -0.5017      103.03
        25         0.9561     41.1024    -11.2588     10.2666       51.86
        26        -6.5645     71.6860     41.0589     35.3935       66.30
        27        -2.3789     -2.2749     -6.6026     -3.7521      131.09
        28         0.0389     18.1619     13.2356     10.4788       81.68
        29         0.2504      4.1574      1.2562      1.8880       25.42
        30       -12.8015     -5.6830    -10.5770     -9.6872      126.04
        31         8.2879      1.3393     -0.1832      3.1480       48.04
        32        -9.3466     11.3800    -24.8775     -7.6147      129.61
        33       -10.7329     -0.9230      8.2820     -1.1246       98.10
        34       -12.5058     32.6338     34.1510     18.0930       57.46
        35        -3.4718      0.1167    -22.2220     -8.5257      151.15
        36        -6.2372      0.1896     -3.6542     -3.2339      102.48
        37       -19.3858     -0.6506     24.0233      1.3289       85.80
        38       -17.2327     27.7072     17.3548      9.2765       71.72
        39        14.6557      0.0435     -3.3885      3.7702       56.32
        40         0.6848      2.8716      1.2040      1.5868       43.79
        41        -5.7160     -5.7381    -14.1434     -8.5325      140.76
        42        -0.9360     -9.3182      9.2534     -0.3336       93.66
        43        -2.0385     -2.7182     15.7145      3.6526       48.50
        44         0.1268      1.8586      1.4166      1.1340       70.83
        45       -12.5043     -0.5840     -1.4659     -4.8514      109.75
        46         2.3305      9.2897     -4.7621      2.2860       86.13
        47         3.6454      9.6337     -8.9986      1.4269       62.42
        48       -24.4655    -12.2513      6.3424    -10.1248      109.99
        49       -99.6808     -7.6143     48.3325    -19.6542      119.26
        50      -188.8534     58.8464    244.1016     38.0316       73.02
        51       -19.3790     32.6578     88.3884     33.8891       45.39
        52        -3.2008      3.9789     12.3748      4.3843       26.83
        53         3.6479    -13.3022      4.0583     -1.8653      105.62
        54       -31.3767     17.2761     44.7822     10.2272       64.24
        55        21.8490    -11.2128      3.8553      4.8305       80.70
        56        -5.6714     36.5050     50.4313     27.0883       55.39
        57        -4.2744     -6.2252     19.1316      2.8773       74.07
        58        22.2697     -3.0031    -13.6783      1.8628       78.89
        59       -65.4429    -50.6432    -66.8920    -60.9927      112.32
        60         2.3949     -5.9089      0.1076     -1.1355      111.82
 1/2[<0|r|b>*<b|rxdel|0> + (<0|rxdel|b>*<b|r|0>)*]
 Rotatory Strengths (R) in cgs (10**-40 erg-esu-cm/Gauss)
       state          XX          YY          ZZ     R(length)
         1       -79.6040     -2.4989    -61.8576    -47.9868
         2        -1.3879     -0.5878     -0.7020     -0.8925
         3       -15.6496    -26.0600    -18.5767    -20.0954
         4        -1.8788     -0.0849     -1.2031     -1.0556
         5      -117.7785     70.7425    -24.8456    -23.9605
         6        32.3815     11.7340     -0.1607     14.6516
         7        -4.1795    -66.2618     -1.6684    -24.0366
         8         5.0382    -23.3732     -3.8934     -7.4094
         9        -8.3768    -36.6290    -61.9161    -35.6406
        10        27.5677    -35.4121      3.1127     -1.5772
        11       154.0397    -48.5428      4.0009     36.4992
        12       104.2268   -139.3978     -5.3451    -13.5054
        13       -35.7079     25.9493    -21.4547    -10.4044
        14        69.0901     89.6977     72.5697     77.1192
        15       -67.7417   -144.2503    -65.8086    -92.6002
        16       -12.9105      3.8953     70.7954     20.5934
        17       437.6228     18.2492    -13.8790    147.3310
        18        64.0036    -57.8885     -7.0759     -0.3203
        19       -54.8688   -285.9740      5.8812   -111.6538
        20        49.3995    106.3407     47.0495     67.5966
        21       -27.4744     -2.0783     -5.7231    -11.7586
        22         3.1154     38.5841      3.5435     15.0810
        23        -2.0699     -1.2372      2.6851     -0.2073
        24        -1.1228     -1.9633      1.7063     -0.4599
        25        40.6376     -8.4047     -0.9341     10.4329
        26       113.9952    -25.6880     18.8342     35.7138
        27        -4.9099     -6.0040     -1.0147     -3.9762
        28        23.4771    -23.6418     28.9376      9.5910
        29         5.0726      0.2860     -0.0035      1.7850
        30        -9.2804    -22.5022      0.4235    -10.4530
        31         0.2340      4.9288      4.2653      3.1427
        32         3.0129    -15.1472    -11.6919     -7.9421
        33        10.1429     -5.4650     -8.6844     -1.3355
        34        68.9810     -2.8053    -11.2484     18.3091
        35       -11.1268    -15.4555      0.1425     -8.8133
        36         2.6979     -8.8563     -3.2553     -3.1379
        37        27.2610    -15.9885     -5.8607      1.8039
        38        53.6180      5.2649    -30.7275      9.3851
        39         0.0556      1.5584     10.0681      3.8940
        40         3.9645      1.2192     -0.4394      1.5815
        41       -12.6482    -12.5469     -1.5836     -8.9262
        42        -3.1202      4.3708     -2.1168     -0.2887
        43         9.0947      2.5893     -0.6696      3.6715
        44         7.1978     -2.8042     -1.0902      1.1011
        45        12.8653      0.7488    -28.5003     -4.9621
        46        14.3008     -7.4449     -0.6494      2.0689
        47         3.3382     -0.2578      0.9211      1.3338
        48         2.3297      5.7391    -40.1307    -10.6873
        49        29.8709     -1.8570    -86.9155    -19.6339
        50       224.8337    -24.6439    -86.3891     37.9336
        51       120.0857     -3.7305    -12.5454     34.6033
        52        10.5245     -0.2322      2.7536      4.3486
        53        -4.3664      3.8889     -4.8099     -1.7625
        54        39.4189      7.4895    -15.2016     10.5689
        55       -36.1708      7.8480     43.0936      4.9236
[...]
    30  C    0.000436  -0.000041   0.000141  -0.000191   0.000112   0.001851
    31  H    0.000000   0.000000   0.000000   0.000000   0.000000   0.000000
    32  H    0.000000   0.000000   0.000000   0.000000   0.000000   0.000000
    33  H    0.000000   0.000000   0.000000   0.000000   0.000000   0.000000
    34  H    0.000011   0.000000   0.000000   0.000000   0.000000   0.000001
    35  H    0.000000   0.000000   0.000000   0.000000   0.000000   0.000000
    36  H   -0.000021  -0.000002   0.000000   0.000000   0.000000  -0.000009
    37  H    0.000000   0.000000   0.000000   0.000000   0.000000   0.000000
    38  H    0.000000   0.000000   0.000000   0.000000   0.000000   0.000000
    39  H    0.000000   0.000000   0.000000   0.000000   0.000000   0.000000
    40  H    0.000000   0.000000   0.000000   0.000000   0.000000   0.000000
    41  H    0.000000   0.000000   0.000000   0.000000   0.000000   0.000000
    42  H    0.000000   0.000000   0.000000   0.000000   0.000000   0.000000
    43  H    0.000003  -0.000001   0.000000   0.000000   0.000000  -0.000002
    44  H    0.000893   0.000064  -0.000687   0.000016  -0.000010  -0.000058
    45  H    0.000002   0.000066  -0.000118   0.000035  -0.000003   0.000001
    46  H   -0.000004  -0.000006   0.000010   0.000026   0.000002  -0.000001
    47  H    0.000001  -0.000001   0.000000  -0.000003   0.000005  -0.000002
    48  H    0.000033   0.000000  -0.000001   0.000000  -0.000001  -0.000004
              31         32         33         34         35         36
     1  C    0.001025  -0.000408  -0.000062   0.000000   0.000000   0.000000
     2  C    0.000890  -0.000175   0.000471   0.000008   0.000000   0.000000
     3  C   -0.000065  -0.000444   0.001786  -0.000393   0.000000   0.000000
     4  C    0.000010   0.000034   0.000119  -0.000066   0.000000   0.000001
     5  C   -0.000113  -0.000005   0.000001  -0.000010  -0.000151  -0.000007
     6  C    0.000806   0.000045  -0.000030  -0.000031  -0.000034  -0.000001
     7  C   -0.000070  -0.000021  -0.000064  -0.000352  -0.000002   0.000012
     8  C    0.000002   0.000000   0.000008   0.000150   0.000003   0.000260
     9  C    0.000000   0.000000   0.000000   0.000000   0.000921  -0.000005
    10  C   -0.000035   0.000000   0.000000   0.000001   0.000774  -0.000040
    11  C   -0.000001   0.000000   0.000000   0.000005  -0.000049  -0.000575
    12  C    0.000000   0.000000   0.000000   0.000001   0.000005  -0.000040
    13  C    0.000000   0.000000   0.000000   0.000000  -0.000058  -0.000369
    14  C    0.000000   0.000000   0.000000   0.000000   0.000858   0.000014
    15  H    0.000030  -0.000001   0.000000   0.000000   0.000036   0.000000
    16  C    0.000000   0.000000  -0.000001   0.000086   0.000000   0.000049
    17  O    0.000000   0.000000   0.000000  -0.000098   0.000000  -0.000005
    18  H    0.000000   0.000000   0.000000   0.000006   0.000000   0.000001
    19  C    0.000000   0.000000   0.000000  -0.000036   0.000000  -0.000122
    20  C    0.000000   0.000000   0.000000  -0.000015   0.000000  -0.000002
    21  C    0.000000   0.000000   0.000000  -0.000002   0.000000   0.000000
    22  C    0.000000   0.000000   0.000000   0.000000   0.000000   0.000000
    23  C    0.000000   0.000000   0.000000  -0.000001   0.000000   0.000004
    24  C    0.000000   0.000000   0.000000   0.000005   0.000000   0.000007
    25  C    0.000000   0.000000   0.000000   0.000011   0.000000  -0.000021
    26  C    0.000000   0.000000   0.000000   0.000000   0.000000  -0.000002
    27  C    0.000000   0.000000   0.000000   0.000000   0.000000   0.000000
    28  C    0.000000   0.000000   0.000000   0.000000   0.000000   0.000000
    29  C    0.000000   0.000000   0.000000   0.000000   0.000000   0.000000
    30  C    0.000000   0.000000   0.000000   0.000001   0.000000  -0.000009
    31  H   -0.009892   0.000040   0.000004   0.000000   0.000000   0.000000
    32  H    0.000040   0.004653   0.000072  -0.000002   0.000000   0.000000
    33  H    0.000004   0.000072  -0.010633   0.000077   0.000000   0.000000
    34  H    0.000000  -0.000002   0.000077   0.004287   0.000000   0.000000
    35  H    0.000000   0.000000   0.000000   0.000000  -0.009258   0.000000
    36  H    0.000000   0.000000   0.000000   0.000000   0.000000   0.004533
    37  H    0.000000   0.000000   0.000000   0.000000   0.000004   0.000077
    38  H    0.000000   0.000000   0.000000   0.000000   0.000032  -0.000002
    39  H    0.000000   0.000000   0.000000   0.000003   0.000000   0.000000
    40  H    0.000000   0.000000   0.000000   0.000000   0.000000   0.000000
    41  H    0.000000   0.000000   0.000000   0.000000   0.000000   0.000000
    42  H    0.000000   0.000000   0.000000   0.000000   0.000000   0.000001
    43  H    0.000000   0.000000   0.000000   0.000000   0.000000  -0.000045
    44  H   -0.000002   0.000000   0.000000  -0.000001  -0.000002   0.000000
    45  H    0.000000   0.000000   0.000000   0.000000   0.000000   0.000000
    46  H    0.000000   0.000000   0.000000   0.000000   0.000000   0.000000
    47  H    0.000000   0.000000   0.000000   0.000000   0.000000   0.000000
    48  H    0.000000   0.000000   0.000000   0.000000   0.000000  -0.000001
              37         38         39         40         41         42
     1  C    0.000000   0.000000   0.000022   0.000000   0.000000   0.000000
     2  C    0.000000   0.000000  -0.000010   0.000000   0.000000   0.000000
     3  C    0.000000   0.000000   0.000020  -0.000001   0.000000   0.000000
     4  C    0.000000   0.000000   0.000128  -0.000002   0.000000   0.000000
     5  C    0.000001  -0.000005  -0.000120  -0.000002   0.000000   0.000000
     6  C    0.000000   0.000000  -0.000239  -0.000001   0.000000   0.000000
     7  C    0.000000   0.000000  -0.000779   0.000014   0.000000   0.000001
     8  C    0.000008  -0.000001  -0.000097   0.000000   0.000000   0.000001
     9  C   -0.000057  -0.000380  -0.000004   0.000000   0.000000   0.000000
    10  C   -0.000029   0.000045  -0.000093   0.000000   0.000000   0.000000
    11  C   -0.000050  -0.000023   0.000026   0.000004   0.000000   0.000003
    12  C    0.000112   0.000035   0.000002   0.000000   0.000000  -0.000002
    13  C    0.001708  -0.000429   0.000000   0.000000   0.000000  -0.000001
    14  C    0.000447  -0.000189   0.000001   0.000000   0.000000   0.000000
    15  H    0.000000  -0.000001   0.000003   0.000000   0.000000   0.000000
    16  C    0.000000   0.000000  -0.000022   0.000000   0.000000   0.000003
    17  O    0.000000   0.000000   0.000000   0.000000   0.000000  -0.000001
    18  H    0.000000   0.000000   0.000000   0.000000   0.000000   0.000000
    19  C    0.000001   0.000000   0.000319   0.000017   0.000000   0.000013
    20  C    0.000000   0.000000   0.000290  -0.000055   0.000000   0.000004
    21  C    0.000000   0.000000  -0.000112   0.000027   0.000000   0.000008
    22  C    0.000000   0.000000   0.000006  -0.000060   0.000018  -0.000029
    23  C    0.000000   0.000000   0.000000  -0.000002   0.000003  -0.000130
    24  C    0.000000   0.000000   0.000006   0.000005  -0.000003   0.000013
    25  C    0.000000   0.000000   0.000000   0.000000   0.000000   0.000000
    26  C    0.000000   0.000000   0.000000   0.000000   0.000000   0.000000
    27  C    0.000000   0.000000   0.000000   0.000000   0.000000   0.000000
    28  C    0.000000   0.000000   0.000000   0.000000   0.000000   0.000000
    29  C    0.000000   0.000000   0.000000   0.000000   0.000000   0.000000
    30  C    0.000000   0.000000   0.000000   0.000000   0.000000   0.000000
    31  H    0.000000   0.000000   0.000000   0.000000   0.000000   0.000000
    32  H    0.000000   0.000000   0.000000   0.000000   0.000000   0.000000
    33  H    0.000000   0.000000   0.000000   0.000000   0.000000   0.000000
    34  H    0.000000   0.000000   0.000003   0.000000   0.000000   0.000000
    35  H    0.000004   0.000032   0.000000   0.000000   0.000000   0.000000
    36  H    0.000077  -0.000002   0.000000   0.000000   0.000000   0.000001
    37  H   -0.010126   0.000067   0.000000   0.000000   0.000000   0.000000
    38  H    0.000067   0.004491   0.000000   0.000000   0.000000   0.000000
    39  H    0.000000   0.000000  -0.000245   0.000000   0.000000   0.000000
    40  H    0.000000   0.000000   0.000000   0.000175  -0.000002   0.000001
    41  H    0.000000   0.000000   0.000000  -0.000002  -0.000053  -0.000002
    42  H    0.000000   0.000000   0.000000   0.000001  -0.000002   0.000318
    43  H    0.000000   0.000000   0.000001   0.000000   0.000000   0.000021
    44  H    0.000000   0.000000   0.000000   0.000000   0.000000   0.000000
    45  H    0.000000   0.000000   0.000000   0.000000   0.000000   0.000000
    46  H    0.000000   0.000000   0.000000   0.000000   0.000000   0.000000
    47  H    0.000000   0.000000   0.000000   0.000000   0.000000   0.000000
    48  H    0.000000   0.000000   0.000000   0.000000   0.000000   0.000000
              43         44         45         46         47         48
     1  C    0.000000  -0.000434  -0.000001   0.000000   0.000000   0.000000
     2  C    0.000000   0.000016   0.000000   0.000000   0.000000   0.000000
     3  C    0.000000   0.000098   0.000000   0.000000   0.000000   0.000000
     4  C   -0.000001   0.000118   0.000000   0.000000   0.000000  -0.000001
     5  C    0.000000   0.004307   0.000037   0.000000   0.000000   0.000000
     6  C    0.000000  -0.001590  -0.000003   0.000000   0.000000   0.000000
     7  C    0.000013  -0.002419  -0.000005   0.000000   0.000000   0.000002
     8  C    0.000007   0.000171   0.000000   0.000000   0.000000  -0.000002
     9  C    0.000000  -0.000491  -0.000005   0.000000   0.000000   0.000000
    10  C    0.000001  -0.001008  -0.000018   0.000000   0.000000   0.000000
    11  C    0.000040  -0.003090  -0.000010   0.000000   0.000000   0.000000
    12  C   -0.000007   0.000104   0.000003   0.000000   0.000000  -0.000004
    13  C   -0.000001   0.000135   0.000002   0.000000   0.000000   0.000000
    14  C    0.000000   0.000016   0.000000   0.000000   0.000000   0.000000
    15  H    0.000000   0.000069   0.000000   0.000000   0.000000   0.000000
    16  C    0.000078   0.000642   0.000000   0.000000   0.000000  -0.000002
    17  O   -0.000049  -0.000003   0.000000   0.000000   0.000000  -0.000001
    18  H    0.000007   0.000010   0.000000   0.000000   0.000000  -0.000002
    19  C   -0.000139  -0.000130   0.000000   0.000000   0.000000   0.000001
    20  C    0.000002   0.000000   0.000000   0.000000   0.000000   0.000000
    21  C    0.000000   0.000000   0.000000   0.000000   0.000000   0.000000
    22  C   -0.000005   0.000000   0.000000   0.000000   0.000000   0.000000
    23  C   -0.000094   0.000000   0.000000   0.000000   0.000000   0.000000
    24  C    0.000161   0.000002   0.000000   0.000000   0.000000   0.000000
    25  C    0.000003   0.000893   0.000002  -0.000004   0.000001   0.000033
    26  C   -0.000001   0.000064   0.000066  -0.000006  -0.000001   0.000000
    27  C    0.000000  -0.000687  -0.000118   0.000010   0.000000  -0.000001
    28  C    0.000000   0.000016   0.000035   0.000026  -0.000003   0.000000
    29  C    0.000000  -0.000010  -0.000003   0.000002   0.000005  -0.000001
    30  C   -0.000002  -0.000058   0.000001  -0.000001  -0.000002  -0.000004
    31  H    0.000000  -0.000002   0.000000   0.000000   0.000000   0.000000
    32  H    0.000000   0.000000   0.000000   0.000000   0.000000   0.000000
    33  H    0.000000   0.000000   0.000000   0.000000   0.000000   0.000000
    34  H    0.000000  -0.000001   0.000000   0.000000   0.000000   0.000000
    35  H    0.000000  -0.000002   0.000000   0.000000   0.000000   0.000000
    36  H   -0.000045   0.000000   0.000000   0.000000   0.000000  -0.000001
    37  H    0.000000   0.000000   0.000000   0.000000   0.000000   0.000000
    38  H    0.000000   0.000000   0.000000   0.000000   0.000000   0.000000
    39  H    0.000001   0.000000   0.000000   0.000000   0.000000   0.000000
    40  H    0.000000   0.000000   0.000000   0.000000   0.000000   0.000000
    41  H    0.000000   0.000000   0.000000   0.000000   0.000000   0.000000
    42  H    0.000021   0.000000   0.000000   0.000000   0.000000   0.000000
    43  H    0.000013   0.000000   0.000000   0.000000   0.000000   0.000000
    44  H    0.000000   0.000620   0.000068  -0.000001   0.000000   0.000000
    45  H    0.000000   0.000068  -0.000002  -0.000003   0.000000   0.000000
    46  H    0.000000  -0.000001  -0.000003  -0.000124   0.000002   0.000000
    47  H    0.000000   0.000000   0.000000   0.000002   0.000007  -0.000002
    48  H    0.000000   0.000000   0.000000   0.000000  -0.000002  -0.000091
 Mulliken charges and spin densities:
               1          2
     1  C    0.004767   0.185934
     2  C    0.025012  -0.106114
     3  C    0.017888   0.199337
     4  C    0.043645  -0.103961
     5  C   -0.020489   0.612562
     6  C    0.020077  -0.159034
     7  C   -0.085298   0.197660
     8  C   -0.234617  -0.030727
     9  C    0.002235   0.172923
    10  C    0.042356  -0.153884
    11  C   -0.001430   0.199555
    12  C    0.014922  -0.104327
    13  C    0.015907   0.189117
    14  C    0.019351  -0.101342
    15  H    0.006570  -0.024298
    16  C    0.252944   0.017638
    17  O   -0.070234   0.001261
    18  H    0.248865   0.000839
    19  C    0.058036   0.018182
    20  C    0.014973   0.000838
    21  C    0.005769  -0.000782
    22  C    0.002372   0.000818
    23  C    0.003993  -0.000263
    24  C   -0.022046   0.001526
    25  C    0.018455  -0.001671
    26  C    0.059347   0.003651
    27  C    0.018457  -0.000363
    28  C    0.048141   0.002430
    29  C    0.013830  -0.000770
    30  C    0.005469   0.002153
    31  H    0.014472  -0.007371
    32  H    0.029098   0.003787
    33  H    0.028000  -0.008253
    34  H    0.017388   0.003638
    35  H    0.012821  -0.006920
    36  H    0.004482   0.003713
    37  H    0.025382  -0.007837
    38  H    0.026009   0.003640
    39  H    0.009235  -0.000895
    40  H    0.022991   0.000120
    41  H    0.021484  -0.000040
    42  H    0.023619   0.000223
    43  H    0.017194   0.000003
    44  H    0.029291  -0.002577
    45  H    0.042492   0.000045
    46  H    0.051972  -0.000098
    47  H    0.046929   0.000008
    48  H    0.047874  -0.000076
 Sum of Mulliken charges =   1.00000   1.00000
 Mulliken charges and spin densities with hydrogens summed into heavy atoms:
               1          2
     1  C    0.019239   0.178563
     2  C    0.054110  -0.102328
     3  C    0.045888   0.191084
     4  C    0.061033  -0.100323
     5  C   -0.013920   0.588264
     6  C    0.020077  -0.159034
     7  C   -0.085298   0.197660
     8  C   -0.234617  -0.030727
     9  C    0.015056   0.166003
    10  C    0.042356  -0.153884
    11  C   -0.001430   0.199555
    12  C    0.019404  -0.100614
    13  C    0.041289   0.181280
    14  C    0.045360  -0.097702
    16  C    0.252944   0.017638
    17  O    0.178631   0.002100
    19  C    0.058036   0.018182
    20  C    0.024208  -0.000056
    21  C    0.028760  -0.000662
    22  C    0.023856   0.000778
    23  C    0.027612  -0.000040
    24  C   -0.004852   0.001529
    25  C    0.018455  -0.001671
    26  C    0.088638   0.001075
    27  C    0.060948  -0.000317
    28  C    0.100114   0.002332
    29  C    0.060759  -0.000762
    30  C    0.053343   0.002077
 Electronic spatial extent (au):  <R**2>=           8206.5254
 Charge=              1.0000 electrons
 Dipole moment (field-independent basis, Debye):
    X=              6.9290    Y=              0.1016    Z=             -5.4651  Tot=              8.8255
 Quadrupole moment (field-independent basis, Debye-Ang):
   XX=           -118.4405   YY=           -133.1038   ZZ=           -117.3862
   XY=             -5.1704   XZ=             -7.0957   YZ=              8.6181
 Traceless Quadrupole moment (field-independent basis, Debye-Ang):
   XX=              4.5364   YY=            -10.1270   ZZ=              5.5906
   XY=             -5.1704   XZ=             -7.0957   YZ=              8.6181
 Octapole moment (field-independent basis, Debye-Ang**2):
  XXX=            111.7345  YYY=             31.3632  ZZZ=            -48.3776  XYY=            -15.0659
  XXY=            -28.0354  XXZ=            -49.6458  XZZ=             56.3117  YZZ=            -12.2027
  YYZ=              0.5628  XYZ=              1.2092
 Hexadecapole moment (field-independent basis, Debye-Ang**3):
 XXXX=          -3974.3882 YYYY=          -2887.4507 ZZZZ=          -2116.5465 XXXY=             59.8485
 XXXZ=           -158.9420 YYYX=           -100.0125 YYYZ=             16.2791 ZZZX=            -68.5838
 ZZZY=             31.2303 XXYY=          -1416.7871 XXZZ=          -1216.2407 YYZZ=           -858.7182
 XXYZ=            118.8777 YYXZ=             75.9387 ZZXY=            -62.9196
 N-N= 2.520537816299D+03 E-N=-7.605959948723D+03  KE= 1.108375685585D+03
 1|1|UNPC-CHSHR-P01|SP|UwB97XD TD-FC|CC-pVDZ|C27H20O1(1+,2)|IBS|19-May-
 2024|0||# td=(nstates=60) wb97xd/cc-pvdz scrf=(cpcm,solvent=n,n-DiMeth
 ylFormamide) geom=AllCheck guess=read maxdisk=900GB integral(ultrafine
 grid)||mono_pin_rear1||1,2|C,0,2.2356633528,1.0719186115,0.7038406192|
 C,0,3.3638802669,0.3271893873,0.992943312|C,0,3.3184682069,-1.06963935
 89,0.9253137104|C,0,2.132217918,-1.707947921,0.577792997|C,0,-0.129494
 1645,1.2148490279,0.023754298|C,0,1.0180074549,0.443130136,0.347704428
 9|C,0,0.9817619048,-0.9719797943,0.3039417702|C,0,-0.3017968334,-1.712
 9851302,-0.1434611035|C,0,-2.5200020307,1.4097301532,-0.5341188119|C,0
 ,-1.3773671951,0.6100134487,-0.2966649015|C,0,-1.5184093803,-0.7961642
 466,-0.315379487|C,0,-2.7694946744,-1.3602096915,-0.542137006|C,0,-3.8
 861184901,-0.5591424167,-0.7619194453|C,0,-3.755062289,0.8334194342,-0
 .7657178689|H,0,-0.0582529578,2.2958445306,0.045132471|C,0,-0.52032977
 65,-2.6639575408,1.0122471145|O,0,-0.027620426,-3.8582936841,0.8339978
 884|H,0,-0.0113637641,-4.4635784509,1.6231914718|C,0,-0.0487055009,-2.
 4026481385,-1.4992689813|C,0,0.7992708138,-1.7695259438,-2.4101431766|
 C,0,0.9661898273,-2.2805618078,-3.6943357533|C,0,0.2890487209,-3.43344
 26443,-4.0828493492|C,0,-0.5601358851,-4.0678663519,-3.1791480607|C,0,
 -0.7334440128,-3.55405403,-1.8967928838|C,0,-1.1782882964,-2.297086202
 6,2.2352407828|C,0,-1.2610446698,-0.9536242009,2.6541199119|C,0,-1.908
 283466,-0.6405313936,3.8361106114|C,0,-2.4970960286,-1.647559498,4.603
 6406541|C,0,-2.4298247585,-2.9797756347,4.194651581|C,0,-1.7673154873,
 -3.3091786872,3.0245894697|H,0,2.2697946666,2.1544273635,0.739704029|H
 ,0,4.285755608,0.8260297239,1.2639149048|H,0,4.2029263367,-1.656433448
 5,1.1363722828|H,0,2.1122430504,-2.7877053869,0.503614414|H,0,-2.41234
 35535,2.4879971204,-0.5209858965|H,0,-2.8871799677,-2.4369993073,-0.55
 2482824|H,0,-4.8517240036,-1.0179551164,-0.9312086513|H,0,-4.620790230
 1,1.459029464,-0.9423472232|H,0,1.3313780545,-0.8739728418,-2.11682551
 21|H,0,1.627247234,-1.7761394361,-4.388189408|H,0,0.420916045,-3.83489
 96664,-5.0799638897|H,0,-1.0903836149,-4.9667916727,-3.4685742351|H,0,
 -1.3917588735,-4.0743571398,-1.2149925193|H,0,-0.7879950812,-0.1687862
 373,2.084322391|H,0,-1.9535264124,0.3891026511,4.1639199116|H,0,-3.012
 1346773,-1.3924358222,5.5211248618|H,0,-2.900224932,-3.7558893526,4.78
 286825|H,0,-1.7755580281,-4.3439628558,2.7023528512||Version=EM64W-G09
 RevD.01|State=2-A|HF=-1115.6454357|S2=0.806225|S2-1=0.|S2A=0.752803|RM
 SD=7.774e-009|PG=C01 [X(C27H20O1)]||@


 AND ALL THIS SCIENCE I DON'T UNDERSTAND
 IT'S JUST MY JOB FIVE DAYS A WEEK

                           -- ELTON JOHN, "ROCKET MAN"
 Job cpu time:       0 days  4 hours 47 minutes 45.0 seconds.
 File lengths (MBytes):  RWF=   4209 Int=      0 D2E=      0 Chk=    554 Scr=      1
 Normal termination of Gaussian 09 at Sun May 19 00:40:22 2024.
