 Entering Link 1 = C:\G09W\l1.exe PID=     12428.
  
 Copyright (c) 1988,1990,1992,1993,1995,1998,2003,2009,2013,
            Gaussian, Inc.  All Rights Reserved.
  
 This is part of the Gaussian(R) 09 program.  It is based on
 the Gaussian(R) 03 system (copyright 2003, Gaussian, Inc.),
 the Gaussian(R) 98 system (copyright 1998, Gaussian, Inc.),
 the Gaussian(R) 94 system (copyright 1995, Gaussian, Inc.),
 the Gaussian 92(TM) system (copyright 1992, Gaussian, Inc.),
 the Gaussian 90(TM) system (copyright 1990, Gaussian, Inc.),
 the Gaussian 88(TM) system (copyright 1988, Gaussian, Inc.),
 the Gaussian 86(TM) system (copyright 1986, Carnegie Mellon
 University), and the Gaussian 82(TM) system (copyright 1983,
 Carnegie Mellon University). Gaussian is a federally registered
 trademark of Gaussian, Inc.
  
 This software contains proprietary and confidential information,
 including trade secrets, belonging to Gaussian, Inc.
  
 This software is provided under written license and may be
 used, copied, transmitted, or stored only in accord with that
 written license.
  
 The following legend is applicable only to US Government
 contracts under FAR:
  
                    RESTRICTED RIGHTS LEGEND
  
 Use, reproduction and disclosure by the US Government is
 subject to restrictions as set forth in subparagraphs (a)
 and (c) of the Commercial Computer Software - Restricted
 Rights clause in FAR 52.227-19.
  
 Gaussian, Inc.
 340 Quinnipiac St., Bldg. 40, Wallingford CT 06492
  
  
 ---------------------------------------------------------------
 Warning -- This program may not be used in any manner that
 competes with the business of Gaussian, Inc. or will provide
 assistance to any competitor of Gaussian, Inc.  The licensee
 of this program is prohibited from giving any competitor of
 Gaussian, Inc. access to this program.  By using this program,
 the user acknowledges that Gaussian, Inc. is engaged in the
 business of creating and licensing software in the field of
 computational chemistry and represents and warrants to the
 licensee that it is not a competitor of Gaussian, Inc. and that
 it will not use this program in any manner prohibited above.
 ---------------------------------------------------------------
  

 Cite this work as:
 Gaussian 09, Revision D.01,
 M. J. Frisch, G. W. Trucks, H. B. Schlegel, G. E. Scuseria, 
 M. A. Robb, J. R. Cheeseman, G. Scalmani, V. Barone, B. Mennucci, 
 G. A. Petersson, H. Nakatsuji, M. Caricato, X. Li, H. P. Hratchian, 
 A. F. Izmaylov, J. Bloino, G. Zheng, J. L. Sonnenberg, M. Hada, 
 M. Ehara, K. Toyota, R. Fukuda, J. Hasegawa, M. Ishida, T. Nakajima, 
 Y. Honda, O. Kitao, H. Nakai, T. Vreven, J. A. Montgomery, Jr., 
 J. E. Peralta, F. Ogliaro, M. Bearpark, J. J. Heyd, E. Brothers, 
 K. N. Kudin, V. N. Staroverov, T. Keith, R. Kobayashi, J. Normand, 
 K. Raghavachari, A. Rendell, J. C. Burant, S. S. Iyengar, J. Tomasi, 
 M. Cossi, N. Rega, J. M. Millam, M. Klene, J. E. Knox, J. B. Cross, 
 V. Bakken, C. Adamo, J. Jaramillo, R. Gomperts, R. E. Stratmann, 
 O. Yazyev, A. J. Austin, R. Cammi, C. Pomelli, J. W. Ochterski, 
 R. L. Martin, K. Morokuma, V. G. Zakrzewski, G. A. Voth, 
 P. Salvador, J. J. Dannenberg, S. Dapprich, A. D. Daniels, 
 O. Farkas, J. B. Foresman, J. V. Ortiz, J. Cioslowski, 
 and D. J. Fox, Gaussian, Inc., Wallingford CT, 2013.
 
 ******************************************
 Gaussian 09:  EM64W-G09RevD.01 13-Apr-2013
                19-May-2024 
 ******************************************
 %nprocshared=15
 Will use up to   15 processors via shared memory.
 %mem=50GB
 %chk=D:\Yaroslav\pink-mystery\mono_pin_rear2\uv1\mono_pin_rear2.chk
 ----------------------------------------------------------------------
 # td=(nstates=60) wb97xd/cc-pvdz scrf=(cpcm,solvent=n,n-DiMethylFormam
 ide) geom=AllCheck guess=read maxdisk=900GB
 ----------------------------------------------------------------------
 1/29=7,38=1/1;
 2/12=2,40=1/2;
 3/5=16,11=9,14=-4,16=1,25=1,30=1,70=2101,72=148,74=-58,116=-2/1,2,8,3;
 4/5=1/1;
 5/5=2,38=6,53=148/2;
 8/6=1,10=1,108=60/1;
 9/41=60,42=1,70=2/14;
 6/7=2,8=2,9=2,10=2/1;
 99/5=1,9=1/99;
 Structure from the checkpoint file:  "D:\Yaroslav\pink-mystery\mono_pin_rear2\uv1\mono_pin_rear2.chk"
 --------------
 mono_pin_rear2
 --------------
 Charge =  0 Multiplicity = 2
 Redundant internal coordinates found in file.
 C,0,2.202770501,1.0378428745,0.5595229021
 C,0,3.2658569187,0.3005275661,1.0543431635
 C,0,3.1465547898,-1.0873921991,1.1902205521
 C,0,1.9616838821,-1.7224182497,0.8183607534
 C,0,-0.1129301147,1.1773249291,-0.2878457703
 C,0,0.9882382559,0.4112050112,0.1915619168
 C,0,0.879475983,-0.9966862639,0.3225136484
 C,0,-0.3722075201,-1.7295976164,-0.172716384
 C,0,-2.5177574525,1.4063722524,-0.794976835
 C,0,-1.3951444546,0.595208605,-0.5003127634
 C,0,-1.5798404815,-0.8031333031,-0.352717141
 C,0,-2.8675698677,-1.3301428419,-0.4456483385
 C,0,-3.966503522,-0.5153986422,-0.7148299348
 C,0,-3.7851725067,0.8596979109,-0.9049221475
 H,0,0.0074785363,2.2553902156,-0.4124077297
 C,0,-0.6835501985,-2.8190129495,0.8926499389
 O,0,-0.4651740263,-3.9925032651,0.6667681488
 C,0,-0.086952882,-2.3507615977,-1.5626231372
 C,0,0.9419736902,-1.8527459714,-2.3688769703
 C,0,1.1472609001,-2.341105716,-3.6608751229
 C,0,0.3274991615,-3.3423528745,-4.1724564044
 C,0,-0.7032187345,-3.8476205354,-3.3782795148
 C,0,-0.9096601716,-3.3556311397,-2.0926287458
 C,0,-1.2262565386,-2.4105613419,2.2346146216
 C,0,-1.2313017791,-1.0940123925,2.7154392804
 C,0,-1.7356050517,-0.8113666879,3.9821777942
 C,0,-2.2502161377,-1.8348873386,4.7785048172
 C,0,-2.2513276289,-3.1484469204,4.3072471009
 C,0,-1.7359274481,-3.4331402469,3.0466996861
 H,0,2.2875217689,2.1211623129,0.4505489075
 H,0,4.1938354124,0.8008309471,1.3359947791
 H,0,3.9793788405,-1.6761581542,1.576966665
 H,0,1.8907898237,-2.8087819308,0.9008960648
 H,0,-2.3682019458,2.4811147857,-0.9190568559
 H,0,-3.0319976958,-2.4002529457,-0.3034588852
 H,0,-4.9628443303,-0.9544469417,-0.7816295995
 H,0,-4.6404536451,1.4997284271,-1.1273692364
 H,0,1.6025958018,-1.0709591617,-1.9944178762
 H,0,1.9578053353,-1.9302112477,-4.265630574
 H,0,0.4877531383,-3.7271059207,-5.1812149159
 H,0,-1.356802814,-4.6329861842,-3.762539527
 H,0,-1.7214405147,-3.7735274593,-1.4997515279
 H,0,-0.832462575,-0.2775449653,2.1159295897
 H,0,-1.7257110641,0.2159861813,4.349241035
 H,0,-2.6496882492,-1.6079801627,5.7685438074
 H,0,-2.6529459983,-3.9525305805,4.9258667168
 H,0,-1.7244073905,-4.4553882706,2.667674048
 Recover connectivity data from disk.
                          Input orientation:                          
 ---------------------------------------------------------------------
 Center     Atomic      Atomic             Coordinates (Angstroms)
 Number     Number       Type             X           Y           Z
 ---------------------------------------------------------------------
      1          6           0        2.202771    1.037843    0.559523
      2          6           0        3.265857    0.300528    1.054343
      3          6           0        3.146555   -1.087392    1.190221
      4          6           0        1.961684   -1.722418    0.818361
      5          6           0       -0.112930    1.177325   -0.287846
      6          6           0        0.988238    0.411205    0.191562
      7          6           0        0.879476   -0.996686    0.322514
      8          6           0       -0.372208   -1.729598   -0.172716
      9          6           0       -2.517757    1.406372   -0.794977
     10          6           0       -1.395144    0.595209   -0.500313
     11          6           0       -1.579840   -0.803133   -0.352717
     12          6           0       -2.867570   -1.330143   -0.445648
     13          6           0       -3.966504   -0.515399   -0.714830
     14          6           0       -3.785173    0.859698   -0.904922
     15          1           0        0.007479    2.255390   -0.412408
     16          6           0       -0.683550   -2.819013    0.892650
     17          8           0       -0.465174   -3.992503    0.666768
     18          6           0       -0.086953   -2.350762   -1.562623
     19          6           0        0.941974   -1.852746   -2.368877
     20          6           0        1.147261   -2.341106   -3.660875
     21          6           0        0.327499   -3.342353   -4.172456
     22          6           0       -0.703219   -3.847621   -3.378280
     23          6           0       -0.909660   -3.355631   -2.092629
     24          6           0       -1.226257   -2.410561    2.234615
     25          6           0       -1.231302   -1.094012    2.715439
     26          6           0       -1.735605   -0.811367    3.982178
     27          6           0       -2.250216   -1.834887    4.778505
     28          6           0       -2.251328   -3.148447    4.307247
     29          6           0       -1.735927   -3.433140    3.046700
     30          1           0        2.287522    2.121162    0.450549
     31          1           0        4.193835    0.800831    1.335995
     32          1           0        3.979379   -1.676158    1.576967
     33          1           0        1.890790   -2.808782    0.900896
     34          1           0       -2.368202    2.481115   -0.919057
     35          1           0       -3.031998   -2.400253   -0.303459
     36          1           0       -4.962844   -0.954447   -0.781630
     37          1           0       -4.640454    1.499728   -1.127369
     38          1           0        1.602596   -1.070959   -1.994418
     39          1           0        1.957805   -1.930211   -4.265631
     40          1           0        0.487753   -3.727106   -5.181215
     41          1           0       -1.356803   -4.632986   -3.762540
     42          1           0       -1.721441   -3.773527   -1.499752
     43          1           0       -0.832463   -0.277545    2.115930
     44          1           0       -1.725711    0.215986    4.349241
     45          1           0       -2.649688   -1.607980    5.768544
     46          1           0       -2.652946   -3.952531    4.925867
     47          1           0       -1.724407   -4.455388    2.667674
 ---------------------------------------------------------------------
                    Distance matrix (angstroms):
                    1          2          3          4          5
     1  C    0.000000
     2  C    1.385148   0.000000
     3  C    2.409384   1.399649   0.000000
     4  C    2.782833   2.418443   1.394796   0.000000
     5  C    2.469809   3.739846   4.235312   3.733126   0.000000
     6  C    1.415330   2.438070   2.810951   2.427513   1.424550
     7  C    2.438563   2.813033   2.429154   1.394175   2.466522
     8  C    3.850378   4.343109   3.827756   2.535613   2.920732
     9  C    4.924822   6.171959   6.499562   5.697156   2.468368
    10  C    3.776793   4.922268   5.129920   4.287026   1.424105
    11  C    4.304593   5.165140   4.979987   3.841732   2.465411
    12  C    5.685603   6.521348   6.237362   5.007324   3.728315
    13  C    6.488180   7.490177   7.385932   6.241072   4.230562
    14  C    6.166992   7.339510   7.498642   6.531722   3.737250
    15  H    2.691910   4.073067   4.857614   4.599638   1.091897
    16  C    4.828784   5.035424   4.213877   2.864490   4.205936
    17  O    5.695069   5.700958   4.664575   3.326546   5.269012
    18  C    4.607491   5.011904   4.430556   3.203250   3.751417
    19  C    4.303561   4.664274   4.255951   3.348922   3.824244
    20  C    5.508462   5.805167   5.394636   4.594520   5.034358
    21  C    6.715235   7.015979   6.464536   5.495726   5.975924
    22  C    6.915115   7.253195   6.581095   5.406476   5.928684
    23  C    6.001979   6.380115   5.689893   4.402938   4.943654
    24  C    5.143506   5.377930   4.686471   3.555598   4.524956
    25  C    4.581008   4.992837   4.635943   3.766823   3.928034
    26  C    5.535788   5.901114   5.630870   4.950727   4.982075
    27  C    6.773587   6.989738   6.523777   5.782343   6.269715
    28  C    7.170038   7.274348   6.565130   5.652906   6.663327
    29  C    6.456708   6.551916   5.726053   4.643748   5.916900
    30  H    1.092080   2.153234   3.402921   3.874864   2.682951
    31  H    2.150215   1.091226   2.164124   3.408406   4.618099
    32  H    3.399607   2.165533   1.090786   2.156088   5.326057
    33  H    3.874324   3.403257   2.150311   1.091799   4.617039
    34  H    5.016276   6.355461   6.898973   6.279827   2.680400
    35  H    6.322028   6.985758   6.490700   5.162828   4.617387
    36  H    7.557377   8.523924   8.346749   7.148345   5.320709
    37  H    7.063191   8.289011   8.526542   7.599758   4.615974
    38  H    3.365987   3.733947   3.539209   2.909479   3.303059
    39  H    5.670226   5.915177   5.647104   5.088237   5.455960
    40  H    7.655200   7.926025   7.391380   6.495087   6.954087
    41  H    7.969259   8.301259   7.575044   6.361478   6.883344
    42  H    6.541355   6.927803   6.176459   4.811039   5.344807
    43  H    3.655857   4.272863   4.164777   3.402734   2.900433
    44  H    5.519998   5.981576   5.951233   5.460898   5.002780
    45  H    7.594777   7.801267   7.404626   6.766252   7.132526
    46  H    8.218684   8.252844   7.469825   6.568091   7.742732
    47  H    7.074081   7.079852   6.103486   4.947358   6.561967
                    6          7          8          9         10
     6  C    0.000000
     7  C    1.418145   0.000000
     8  C    2.562528   1.532685   0.000000
     9  C    3.775662   4.308674   3.850312   0.000000
    10  C    2.488586   2.895699   2.560946   1.416006   0.000000
    11  C    2.892384   2.557662   1.532682   2.440737   1.418188
    12  C    4.278503   3.839482   2.541828   2.780812   2.424459
    13  C    5.121485   4.979080   3.832379   2.408006   2.809155
    14  C    4.918219   5.168337   4.346137   1.384659   2.438421
    15  H    2.174325   3.446228   4.010205   2.691469   2.175151
    16  C    3.704148   2.467586   1.555238   4.905740   3.755479
    17  O    4.661639   3.301744   2.415392   5.957991   4.824316
    18  C    3.444076   2.514209   1.548889   4.540280   3.393908
    19  C    3.418108   2.824947   2.562296   5.006871   3.866023
    20  C    4.737275   4.212666   3.853567   5.974054   5.007487
    21  C    5.793999   5.100155   4.369038   6.484847   5.653011
    22  C    5.808820   4.932405   3.856323   6.129473   5.338556
    23  C    4.796728   3.820804   2.572723   5.191007   4.287225
    24  C    4.128004   3.176363   2.643549   5.041367   4.067309
    25  C    3.682661   3.192326   3.079522   4.497768   3.636121
    26  C    4.825223   4.501792   4.468238   5.324597   4.710317
    27  C    6.047525   5.509393   5.296470   6.452987   5.873877
    28  C    6.332833   5.505461   5.061057   6.844710   6.153100
    29  C    5.509254   4.494200   3.889271   6.228211   5.378199
    30  H    2.163138   3.423444   4.721332   5.015273   4.098134
    31  H    3.425987   3.904253   5.433970   7.067758   5.886510
    32  H    3.901712   3.412438   4.690474   7.572377   6.193521
    33  H    3.418489   2.154292   2.727350   6.330782   4.934359
    34  H    4.096790   4.917724   4.719228   1.092169   2.163060
    35  H    4.930683   4.202555   2.746153   3.872522   3.419186
    36  H    6.182838   5.945891   4.695272   3.398837   3.899879
    37  H    5.882740   6.229275   5.436712   2.150590   3.426863
    38  H    2.711596   2.428290   2.766270   4.955113   3.740977
    39  H    5.127266   4.804720   4.713932   6.573347   5.638939
    40  H    6.800208   6.156270   5.460277   7.390858   6.643685
    41  H    6.824808   5.908577   4.720797   6.828477   6.162598
    42  H    5.264493   4.218562   2.785516   5.287929   4.493462
    43  H    2.737247   2.581519   2.749217   3.761539   2.814788
    44  H    4.968896   4.946929   5.105425   5.339226   4.875578
    45  H    6.958042   6.518276   6.363983   7.223817   6.762136
    46  H    7.396895   6.511980   6.011551   7.839909   7.190787
    47  H    6.096992   4.923678   4.162475   6.854166   5.971020
                   11         12         13         14         15
    11  C    0.000000
    12  C    1.394497   0.000000
    13  C    2.431065   1.394246   0.000000
    14  C    2.816634   2.418332   1.399967   0.000000
    15  H    3.446405   4.595983   4.853995   4.071207   0.000000
    16  C    2.533386   2.962721   4.320696   5.136559   5.284909
    17  O    3.529010   3.754616   5.124293   6.085759   6.358002
    18  C    2.467334   3.165616   4.374726   4.941300   4.748531
    19  C    3.395016   4.299366   5.349534   5.643264   4.645195
    20  C    4.554816   5.242003   6.177619   6.493791   5.742771
    21  C    4.967493   5.305333   6.195588   6.726669   6.750934
    22  C    4.380799   4.429722   5.370912   6.146119   6.822626
    23  C    3.160962   3.263213   4.394262   5.239105   5.928562
    24  C    3.066453   3.323405   4.449699   5.205702   5.504538
    25  C    3.101560   3.567297   4.425254   4.842133   4.747263
    26  C    4.337700   4.599578   5.208300   5.556701   5.635221
    27  C    5.276681   5.284664   5.904525   6.474428   6.983776
    28  C    5.259910   5.126012   5.924190   6.751638   7.521888
    29  C    4.300853   4.230805   5.257166   6.184107   6.882170
    30  H    4.914594   6.268145   6.886392   6.348717   2.441579
    31  H    6.225736   7.588066   8.516424   8.287927   4.764267
    32  H    5.949014   7.147825   8.350853   8.536896   5.932173
    33  H    4.199934   5.161545   6.494464   6.995375   5.560348
    34  H    3.424696   3.872876   3.402259   2.153369   2.439570
    35  H    2.159161   1.091966   2.143642   3.399457   5.561052
    36  H    3.413441   2.155042   1.090835   2.166387   5.928194
    37  H    3.907763   3.408230   2.164517   1.091159   4.762926
    38  H    3.590935   4.737958   5.741155   5.826018   4.013945
    39  H    5.394083   6.183574   7.050342   7.215244   6.014180
    40  H    6.011568   6.279269   7.078422   7.588369   7.665667
    41  H    5.132680   4.918634   5.749226   6.650754   7.780384
    42  H    3.187315   2.897391   4.033834   5.106818   6.365479
    43  H    2.632306   3.436758   4.229892   4.374627   3.676105
    44  H    4.813345   5.165784   5.585776   5.679963   5.462272
    45  H    6.265955   6.224215   6.705361   7.205131   7.758243
    46  H    6.239688   5.981317   6.734743   7.644448   8.608909
    47  H    4.741585   4.557056   5.656134   6.727580   7.584252
                   16         17         18         19         20
    16  C    0.000000
    17  O    1.214821   0.000000
    18  C    2.569738   2.794379   0.000000
    19  C    3.770087   3.971620   1.398840   0.000000
    20  C    4.931010   4.904646   2.434346   1.396387   0.000000
    21  C    5.191475   4.946627   2.822455   2.418555   1.391481
    22  C    4.393092   4.054635   2.432484   2.775802   2.402857
    23  C    3.041541   2.866609   1.402682   2.400734   2.778414
    24  C    1.504072   2.353705   3.964922   5.119035   6.355722
    25  C    2.568700   3.631151   4.603343   5.581136   6.918828
    26  C    3.831794   4.767134   5.986034   6.970638   8.310672
    27  C    4.303814   4.974742   6.719802   7.827864   9.111654
    28  C    3.771727   4.141964   6.306837   7.513098   8.700183
    29  C    2.474789   2.755318   5.013633   6.244780   7.382200
    30  H    5.781700   6.708278   5.448770   5.054860   6.173803
    31  H    6.090050   6.717908   6.054723   5.598406   6.642446
    32  H    4.849465   5.093915   5.181425   4.982639   5.991497
    33  H    2.574374   2.646994   3.192205   3.536336   4.645569
    34  H    5.849076   6.931384   5.381942   5.642835   6.567333
    35  H    2.668566   3.172568   3.203316   4.512002   5.361151
    36  H    4.959050   5.617533   5.131663   6.180062   6.895380
    37  H    6.195893   7.128569   5.979138   6.629021   7.393801
    38  H    4.076434   4.460157   2.163080   1.089877   2.144221
    39  H    5.862984   5.869620   3.415282   2.153042   1.091579
    40  H    6.252073   5.931055   3.913926   3.410101   2.160412
    41  H    5.041285   4.563331   3.414777   3.867351   3.396084
    42  H    2.777031   2.513954   2.167894   3.396845   3.866747
    43  H    2.824473   4.004483   4.287862   5.073793   6.445856
    44  H    4.716497   5.732447   6.650102   7.518597   8.885643
    45  H    5.395057   6.040378   7.801625   8.898177  10.191577
    46  H    4.629279   4.788305   7.158944   8.399156   9.527350
    47  H    2.629034   2.409057   5.000612   6.264997   7.264104
                   21         22         23         24         25
    21  C    0.000000
    22  C    1.395848   0.000000
    23  C    2.420005   1.391966   0.000000
    24  C    6.658299   5.817498   4.440543   0.000000
    25  C    7.411343   6.707804   5.323147   1.401613   0.000000
    26  C    8.784096   8.028760   6.637676   2.422981   1.392421
    27  C    9.435930   8.542683   7.163953   2.802012   2.417296
    28  C    8.865287   7.871010   6.542278   2.427149   2.791954
    29  C    7.508807   6.520632   5.205903   1.401754   2.415761
    30  H    7.420503   7.696156   6.832642   6.005501   5.277234
    31  H    7.903010   8.234903   7.421408   6.363800   5.909773
    32  H    7.012011   7.155168   6.339500   5.298159   5.365278
    33  H    5.335493   5.110715   4.135548   3.413702   3.997556
    34  H    7.194733   6.990911   6.129618   5.931119   5.223374
    35  H    5.209886   4.119782   2.935676   3.114904   3.750002
    36  H    6.722167   5.766928   4.890062   5.017976   5.115992
    37  H    7.576204   7.011602   6.198795   6.184662   5.754736
    38  H    3.395431   3.865450   3.397176   5.261336   5.496750
    39  H    2.158871   3.397779   3.869899   7.254114   7.720425
    40  H    1.091471   2.164143   3.410296   7.724354   8.499734
    41  H    2.161166   1.091617   2.149459   6.397036   7.382702
    42  H    3.395205   2.138021   1.088636   4.006042   5.018752
    43  H    7.091005   6.553509   5.214646   2.172307   1.088625
    44  H    9.460274   8.790504   7.410808   3.408790   2.151707
    45  H   10.521178   9.616086   8.238933   3.893450   3.405500
    46  H    9.593480   8.530609   7.256350   3.414081   3.883064
    47  H    7.227486   6.161636   4.953157   2.148723   3.397688
                   26         27         28         29         30
    26  C    0.000000
    27  C    1.395190   0.000000
    28  C    2.415281   1.395537   0.000000
    29  C    2.783670   2.412064   1.391283   0.000000
    30  H    6.103907   7.414351   7.952613   7.333377   0.000000
    31  H    6.690271   7.766832   8.121900   7.484324   2.482201
    32  H    6.260507   7.005919   6.960156   6.157258   4.307069
    33  H    5.160882   5.756062   5.373615   4.259974   4.966343
    34  H    5.938242   7.148706   7.682440   7.148805   4.866328
    35  H    4.750987   5.172734   4.735805   3.737675   7.022038
    36  H    5.755815   6.248890   6.169491   5.586861   7.971540
    37  H    6.315598   7.191123   7.539795   7.084654   7.132521
    38  H    6.850596   7.829446   7.673308   6.491418   4.078802
    39  H    9.106011   9.975616   9.627831   8.329023   6.226130
    40  H    9.869783  10.501094   9.892842   8.528174   8.316139
    41  H    8.644589   9.031998   8.253817   6.924529   8.754984
    42  H    6.231063   6.591998   5.864532   4.559199   7.390725
    43  H    2.140914   3.394797   3.880352   3.411798   4.273358
    44  H    1.091003   2.159966   3.405502   3.874641   5.910629
    45  H    2.158992   1.091440   2.160351   3.402147   8.158653
    46  H    3.405727   2.160629   1.091118   2.154520   9.018117
    47  H    3.873879   3.405746   2.161930   1.090314   8.016373
                   31         32         33         34         35
    31  H    0.000000
    32  H    2.497906   0.000000
    33  H    4.303793   2.470245   0.000000
    34  H    7.139254   7.987793   7.030949   0.000000
    35  H    8.071395   7.295184   5.084408   4.964608   0.000000
    36  H    9.560864   9.276163   7.296695   4.307452   2.459100
    37  H    9.197896   9.576074   8.082961   2.483876   4.298350
    38  H    4.616251   4.332453   3.389089   5.435151   5.109386
    39  H    6.620924   6.187669   5.241123   7.026642   6.388887
    40  H    8.758498   7.878506   6.309034   8.053848   6.159683
    41  H    9.291448   8.107280   5.968435   7.727791   4.444841
    42  H    7.997293   6.809148   4.443203   6.314749   2.243782
    43  H    5.199506   5.039883   3.911467   4.379480   3.898369
    44  H    6.668038   6.619197   5.841180   5.770491   5.495335
    45  H    8.501981   7.843373   6.764012   7.843719   6.135395
    46  H    9.075243   7.770762   6.176899   8.696896   5.468006
    47  H    8.026631   6.437930   4.347697   7.835444   3.842005
                   36         37         38         39         40
    36  H    0.000000
    37  H    2.499290   0.000000
    38  H    6.677532   6.807046   0.000000
    39  H    7.809339   8.071567   2.454159   0.000000
    40  H    7.533459   8.369705   4.295773   2.495632   0.000000
    41  H    5.951555   7.438862   4.957049   4.306358   2.497127
    42  H    4.355412   6.038753   4.312515   4.958301   4.293701
    43  H    5.090589   5.308341   4.842930   7.158297   8.178677
    44  H    6.178574   6.335375   7.278452   9.611996  10.548791
    45  H    6.977289   7.821420   8.867575  11.046153  11.585830
    46  H    6.848332   8.385641   8.619944  10.480097  10.586213
    47  H    5.885725   7.639967   6.652700   8.246570   8.187131
                   41         42         43         44         45
    41  H    0.000000
    42  H    2.447823   0.000000
    43  H    7.334930   5.107379   0.000000
    44  H    9.457780   7.080039   2.455432   0.000000
    45  H   10.082845   7.640638   4.291149   2.488977   0.000000
    46  H    8.810869   6.495253   4.971461   4.309152   2.491392
    47  H    6.443161   4.222840   4.307477   4.964817   4.310368
                   46         47
    46  H    0.000000
    47  H    2.492887   0.000000
 Stoichiometry    C27H19O(2)
 Framework group  C1[X(C27H19O)]
 Deg. of freedom   135
 Full point group                 C1      NOp   1
 Largest Abelian subgroup         C1      NOp   1
 Largest concise Abelian subgroup C1      NOp   1
                         Standard orientation:                         
 ---------------------------------------------------------------------
 Center     Atomic      Atomic             Coordinates (Angstroms)
 Number     Number       Type             X           Y           Z
 ---------------------------------------------------------------------
      1          6           0       -0.471645    3.249777    1.690502
      2          6           0       -0.423302    4.185419    0.670271
      3          6           0       -0.337409    3.760038   -0.660402
      4          6           0       -0.310147    2.396636   -0.953403
      5          6           0       -0.448832    0.904967    2.465942
      6          6           0       -0.429897    1.862815    1.411659
      7          6           0       -0.353476    1.440249    0.060092
      8          6           0       -0.424166   -0.049194   -0.294429
      9          6           0       -0.071356   -1.387938    3.298368
     10          6           0       -0.235390   -0.481870    2.222633
     11          6           0       -0.116366   -0.965700    0.894853
     12          6           0        0.214098   -2.304679    0.688576
     13          6           0        0.393929   -3.180044    1.758771
     14          6           0        0.234939   -2.719026    3.071056
     15          1           0       -0.543008    1.254496    3.496087
     16          6           0        0.615905   -0.271974   -1.429060
     17          8           0        0.258506   -0.450986   -2.576235
     18          6           0       -1.860750   -0.399311   -0.755621
     19          6           0       -2.943832    0.406520   -0.389118
     20          6           0       -4.253040    0.049708   -0.718598
     21          6           0       -4.505572   -1.121605   -1.426040
     22          6           0       -3.433595   -1.934847   -1.797383
     23          6           0       -2.129706   -1.580190   -1.463227
     24          6           0        2.084689   -0.226919   -1.108318
     25          6           0        2.614738    0.265673    0.092065
     26          6           0        3.992267    0.288727    0.293856
     27          6           0        4.855458   -0.188729   -0.692802
     28          6           0        4.336681   -0.683062   -1.890312
     29          6           0        2.960954   -0.694551   -2.097457
     30          1           0       -0.538499    3.573244    2.731433
     31          1           0       -0.453443    5.250897    0.903986
     32          1           0       -0.301041    4.489835   -1.470270
     33          1           0       -0.273034    2.076462   -1.996540
     34          1           0       -0.175439   -1.012589    4.318718
     35          1           0        0.340580   -2.686520   -0.326604
     36          1           0        0.652522   -4.222522    1.568273
     37          1           0        0.363141   -3.402944    3.911561
     38          1           0       -2.777186    1.331731    0.162285
     39          1           0       -5.076723    0.699133   -0.416376
     40          1           0       -5.527964   -1.401119   -1.686613
     41          1           0       -3.612075   -2.857744   -2.352391
     42          1           0       -1.317121   -2.236391   -1.770200
     43          1           0        1.963650    0.647445    0.876564
     44          1           0        4.393447    0.683077    1.228644
     45          1           0        5.934301   -0.173999   -0.528114
     46          1           0        5.007352   -1.057981   -2.665021
     47          1           0        2.541425   -1.071943   -3.030385
 ---------------------------------------------------------------------
 Rotational constants (GHZ):      0.2343985      0.1746573      0.1609919
 Standard basis: CC-pVDZ (5D, 7F)
 There are   515 symmetry adapted cartesian basis functions of A   symmetry.
 There are   487 symmetry adapted basis functions of A   symmetry.
   487 basis functions,  1057 primitive gaussians,   515 cartesian basis functions
    95 alpha electrons       94 beta electrons
       nuclear repulsion energy      2482.1070948927 Hartrees.
 NAtoms=   47 NActive=   47 NUniq=   47 SFac= 1.00D+00 NAtFMM=   60 NAOKFM=F Big=F
 Integral buffers will be    131072 words long.
 Raffenetti 2 integral format.
 Two-electron integral symmetry is turned on.
 Nuclear repulsion after empirical dispersion term =     2482.0631183356 Hartrees.
 ------------------------------------------------------------------------------
 Polarizable Continuum Model (PCM)
 =================================
 Model                : C-PCM.
 Atomic radii         : UFF (Universal Force Field).
 Polarization charges : Total charges.
 Charge compensation  : None.
 Solution method      : On-the-fly selection.
 Cavity type          : Scaled VdW (van der Waals Surface) (Alpha=1.100).
 Cavity algorithm     : GePol (No added spheres)
                        Default sphere list used, NSphG=   47.
                        Lebedev-Laikov grids with approx.  5.0 points / Ang**2.
                        Smoothing algorithm: Karplus/York (Gamma=1.0000).
                        Polarization charges: spherical gaussians, with
                                              point-specific exponents (IZeta= 3).
                        Self-potential: point-specific (ISelfS= 7).
                        Self-field    : sphere-specific E.n sum rule (ISelfD= 2).
 Solvent              : n,n-DiMethylFormamide, Eps=  37.219000 Eps(inf)=   2.046330
 ------------------------------------------------------------------------------
 One-electron integrals computed using PRISM.
 NBasis=   487 RedAO= T EigKep=  1.39D-04  NBF=   487
 NBsUse=   487 1.00D-06 EigRej= -1.00D+00 NBFU=   487
 Initial guess from the checkpoint file:  "D:\Yaroslav\pink-mystery\mono_pin_rear2\uv1\mono_pin_rear2.chk"
 B after Tr=     0.000000    0.000000    0.000000
         Rot=    1.000000    0.000000    0.000000    0.000000 Ang=   0.00 deg.
 Initial guess <Sx>= 0.0000 <Sy>= 0.0000 <Sz>= 0.5000 <S**2>= 0.8076 S= 0.5284
 Requested convergence on RMS density matrix=1.00D-08 within 128 cycles.
 Requested convergence on MAX density matrix=1.00D-06.
 Requested convergence on             energy=1.00D-06.
 No special actions if energy rises.
 Inv3:  Mode=1 IEnd=    32689803.
 Iteration    1 A*A^-1 deviation from unit magnitude is 5.11D-15 for   2841.
 Iteration    1 A*A^-1 deviation from orthogonality  is 2.78D-15 for   3107   1806.
 Iteration    1 A^-1*A deviation from unit magnitude is 4.00D-15 for   2841.
 Iteration    1 A^-1*A deviation from orthogonality  is 2.37D-15 for   1898   1586.
 Error on total polarization charges =  0.01424
 SCF Done:  E(UwB97XD) =  -1115.24312168     A.U. after    1 cycles
            NFock=  1  Conv=0.42D-08     -V/T= 2.0068
 <Sx>= 0.0000 <Sy>= 0.0000 <Sz>= 0.5000 <S**2>= 0.8076 S= 0.5284
 <L.S>= 0.000000000000E+00
 Annihilation of the first spin contaminant:
 S**2 before annihilation     0.8076,   after     0.7530
 DoSCS=F DFT=T ScalE2(SS,OS)=  1.000000  1.000000
 ExpMin= 1.22D-01 ExpMax= 1.17D+04 ExpMxC= 4.01D+02 IAcc=3 IRadAn=         5 AccDes= 0.00D+00
 HarFok:  IExCor=  205 AccDes= 0.00D+00 IRadAn=         5 IDoV=-2 UseB2=F ITyADJ=14
 ICtDFT= 12500011 ScaDFX=  1.000000  1.000000  1.000000  1.000000
 Range of M.O.s used for correlation:    29   487
 NBasis=   487 NAE=    95 NBE=    94 NFC=    28 NFV=     0
 NROrb=    459 NOA=    67 NOB=    66 NVA=   392 NVB=   393

 **** Warning!!: The largest alpha MO coefficient is  0.20570617D+02


 **** Warning!!: The largest beta MO coefficient is  0.20565709D+02

 Would need an additional         39770500000 words for in-memory AO integral storage.
 NEqPCM:  Using non-equilibrium solvation (IEInf=1, Eps=  37.2190, EpsInf=   2.0463)
 Inv3:  Mode=1 IEnd=    32689803.
 Iteration    1 A*A^-1 deviation from unit magnitude is 5.11D-15 for   2841.
 Iteration    1 A*A^-1 deviation from orthogonality  is 2.78D-15 for   3107   1806.
 Iteration    1 A^-1*A deviation from unit magnitude is 4.00D-15 for   2841.
 Iteration    1 A^-1*A deviation from orthogonality  is 2.37D-15 for   1898   1586.
 Orbital symmetries:
 Alpha Orbitals:
       Occupied  (A) (A) (A) (A) (A) (A) (A) (A) (A) (A) (A) (A)
                 (A) (A) (A) (A) (A) (A) (A) (A) (A) (A) (A) (A)
                 (A) (A) (A) (A) (A) (A) (A) (A) (A) (A) (A) (A)
                 (A) (A) (A) (A) (A) (A) (A) (A) (A) (A) (A) (A)
                 (A) (A) (A) (A) (A) (A) (A) (A) (A) (A) (A) (A)
                 (A) (A) (A) (A) (A) (A) (A) (A) (A) (A) (A) (A)
                 (A) (A) (A) (A) (A) (A) (A) (A) (A) (A) (A) (A)
                 (A) (A) (A) (A) (A) (A) (A) (A) (A) (A) (A)
       Virtual   (A) (A) (A) (A) (A) (A) (A) (A) (A) (A) (A) (A)
                 (A) (A) (A) (A) (A) (A) (A) (A) (A) (A) (A) (A)
                 (A) (A) (A) (A) (A) (A) (A) (A) (A) (A) (A) (A)
                 (A) (A) (A) (A) (A) (A) (A) (A) (A) (A) (A) (A)
                 (A) (A) (A) (A) (A) (A) (A) (A) (A) (A) (A) (A)
                 (A) (A) (A) (A) (A) (A) (A) (A) (A) (A) (A) (A)
                 (A) (A) (A) (A) (A) (A) (A) (A) (A) (A) (A) (A)
                 (A) (A) (A) (A) (A) (A) (A) (A) (A) (A) (A) (A)
                 (A) (A) (A) (A) (A) (A) (A) (A) (A) (A) (A) (A)
                 (A) (A) (A) (A) (A) (A) (A) (A) (A) (A) (A) (A)
                 (A) (A) (A) (A) (A) (A) (A) (A) (A) (A) (A) (A)
                 (A) (A) (A) (A) (A) (A) (A) (A) (A) (A) (A) (A)
                 (A) (A) (A) (A) (A) (A) (A) (A) (A) (A) (A) (A)
                 (A) (A) (A) (A) (A) (A) (A) (A) (A) (A) (A) (A)
                 (A) (A) (A) (A) (A) (A) (A) (A) (A) (A) (A) (A)
                 (A) (A) (A) (A) (A) (A) (A) (A) (A) (A) (A) (A)
                 (A) (A) (A) (A) (A) (A) (A) (A) (A) (A) (A) (A)
                 (A) (A) (A) (A) (A) (A) (A) (A) (A) (A) (A) (A)
                 (A) (A) (A) (A) (A) (A) (A) (A) (A) (A) (A) (A)
                 (A) (A) (A) (A) (A) (A) (A) (A) (A) (A) (A) (A)
                 (A) (A) (A) (A) (A) (A) (A) (A) (A) (A) (A) (A)
                 (A) (A) (A) (A) (A) (A) (A) (A) (A) (A) (A) (A)
                 (A) (A) (A) (A) (A) (A) (A) (A) (A) (A) (A) (A)
                 (A) (A) (A) (A) (A) (A) (A) (A) (A) (A) (A) (A)
                 (A) (A) (A) (A) (A) (A) (A) (A) (A) (A) (A) (A)
                 (A) (A) (A) (A) (A) (A) (A) (A) (A) (A) (A) (A)
                 (A) (A) (A) (A) (A) (A) (A) (A) (A) (A) (A) (A)
                 (A) (A) (A) (A) (A) (A) (A) (A) (A) (A) (A) (A)
                 (A) (A) (A) (A) (A) (A) (A) (A) (A) (A) (A) (A)
                 (A) (A) (A) (A) (A) (A) (A) (A) (A) (A) (A) (A)
                 (A) (A) (A) (A) (A) (A) (A) (A) (A) (A) (A) (A)
                 (A) (A) (A) (A) (A) (A) (A) (A) (A) (A) (A) (A)
                 (A) (A) (A) (A) (A) (A) (A) (A)
 Beta  Orbitals:
       Occupied  (A) (A) (A) (A) (A) (A) (A) (A) (A) (A) (A) (A)
                 (A) (A) (A) (A) (A) (A) (A) (A) (A) (A) (A) (A)
                 (A) (A) (A) (A) (A) (A) (A) (A) (A) (A) (A) (A)
                 (A) (A) (A) (A) (A) (A) (A) (A) (A) (A) (A) (A)
                 (A) (A) (A) (A) (A) (A) (A) (A) (A) (A) (A) (A)
                 (A) (A) (A) (A) (A) (A) (A) (A) (A) (A) (A) (A)
                 (A) (A) (A) (A) (A) (A) (A) (A) (A) (A) (A) (A)
                 (A) (A) (A) (A) (A) (A) (A) (A) (A) (A)
       Virtual   (A) (A) (A) (A) (A) (A) (A) (A) (A) (A) (A) (A)
                 (A) (A) (A) (A) (A) (A) (A) (A) (A) (A) (A) (A)
                 (A) (A) (A) (A) (A) (A) (A) (A) (A) (A) (A) (A)
                 (A) (A) (A) (A) (A) (A) (A) (A) (A) (A) (A) (A)
                 (A) (A) (A) (A) (A) (A) (A) (A) (A) (A) (A) (A)
                 (A) (A) (A) (A) (A) (A) (A) (A) (A) (A) (A) (A)
                 (A) (A) (A) (A) (A) (A) (A) (A) (A) (A) (A) (A)
                 (A) (A) (A) (A) (A) (A) (A) (A) (A) (A) (A) (A)
                 (A) (A) (A) (A) (A) (A) (A) (A) (A) (A) (A) (A)
                 (A) (A) (A) (A) (A) (A) (A) (A) (A) (A) (A) (A)
                 (A) (A) (A) (A) (A) (A) (A) (A) (A) (A) (A) (A)
                 (A) (A) (A) (A) (A) (A) (A) (A) (A) (A) (A) (A)
                 (A) (A) (A) (A) (A) (A) (A) (A) (A) (A) (A) (A)
                 (A) (A) (A) (A) (A) (A) (A) (A) (A) (A) (A) (A)
                 (A) (A) (A) (A) (A) (A) (A) (A) (A) (A) (A) (A)
                 (A) (A) (A) (A) (A) (A) (A) (A) (A) (A) (A) (A)
                 (A) (A) (A) (A) (A) (A) (A) (A) (A) (A) (A) (A)
                 (A) (A) (A) (A) (A) (A) (A) (A) (A) (A) (A) (A)
                 (A) (A) (A) (A) (A) (A) (A) (A) (A) (A) (A) (A)
                 (A) (A) (A) (A) (A) (A) (A) (A) (A) (A) (A) (A)
                 (A) (A) (A) (A) (A) (A) (A) (A) (A) (A) (A) (A)
                 (A) (A) (A) (A) (A) (A) (A) (A) (A) (A) (A) (A)
                 (A) (A) (A) (A) (A) (A) (A) (A) (A) (A) (A) (A)
                 (A) (A) (A) (A) (A) (A) (A) (A) (A) (A) (A) (A)
                 (A) (A) (A) (A) (A) (A) (A) (A) (A) (A) (A) (A)
                 (A) (A) (A) (A) (A) (A) (A) (A) (A) (A) (A) (A)
                 (A) (A) (A) (A) (A) (A) (A) (A) (A) (A) (A) (A)
                 (A) (A) (A) (A) (A) (A) (A) (A) (A) (A) (A) (A)
                 (A) (A) (A) (A) (A) (A) (A) (A) (A) (A) (A) (A)
                 (A) (A) (A) (A) (A) (A) (A) (A) (A) (A) (A) (A)
                 (A) (A) (A) (A) (A) (A) (A) (A) (A) (A) (A) (A)
                 (A) (A) (A) (A) (A) (A) (A) (A) (A) (A) (A) (A)
                 (A) (A) (A) (A) (A) (A) (A) (A) (A)
   240 initial guesses have been made.
 Convergence on wavefunction:    0.001000000000000
 Iteration     1 Dimension   240 NMult     0 NNew    240
 CISAX will form   240 AO SS matrices at one time.
 New state      2 was old state      3
 New state      3 was old state      6
 New state      4 was old state      9
 New state      5 was old state     33
 New state      6 was old state     32
 New state      7 was old state      2
 New state      8 was old state      4
 New state      9 was old state     34
 New state     10 was old state     31
 New state     11 was old state     26
 New state     12 was old state     28
 New state     13 was old state      5
 New state     14 was old state     30
 New state     15 was old state     44
 New state     16 was old state      8
 New state     17 was old state     97
 New state     18 was old state      7
 New state     19 was old state     62
 New state     20 was old state     14
 New state     21 was old state     27
 New state     22 was old state     12
 New state     23 was old state     17
 New state     24 was old state     11
 New state     25 was old state     16
 New state     26 was old state     13
 New state     27 was old state     15
 New state     28 was old state     90
 New state     29 was old state     61
 New state     30 was old state     10
 No map to state     31
 New state     32 was old state     19
 New state     33 was old state     18
 New state     34 was old state     21
 New state     35 was old state     20
 New state     36 was old state     22
 New state     37 was old state     23
 New state     38 was old state     24
 New state     39 was old state     55
 New state     40 was old state     47
 New state     41 was old state     25
 New state     42 was old state     39
 New state     43 was old state     36
 New state     44 was old state     29
 New state     45 was old state     64
 New state     47 was old state     40
 New state     48 was old state     35
 New state     49 was old state     50
 New state     50 was old state     54
 New state     51 was old state     53
 New state     52 was old state    172
 New state     53 was old state    192
 New state     54 was old state    176
 New state     55 was old state     69
 New state     56 was old state     96
 New state     57 was old state     38
 New state     58 was old state     80
 New state     59 was old state     37
 New state     60 was old state     43
 Iteration     2 Dimension   360 NMult   240 NNew    120
 New state      4 was old state      6
 New state      5 was old state      4
 New state      6 was old state      5
 New state      7 was old state     10
 New state      8 was old state      7
 New state      9 was old state      8
 New state     10 was old state     12
 New state     11 was old state      9
 New state     12 was old state     13
 New state     13 was old state     11
 New state     14 was old state     15
 New state     15 was old state     14
 New state     16 was old state     17
 New state     17 was old state     16
 New state     24 was old state     26
 New state     26 was old state     24
 New state     31 was old state     32
 New state     32 was old state     31
 New state     36 was old state     37
 New state     37 was old state     36
 New state     38 was old state     39
 New state     39 was old state     40
 New state     40 was old state     38
 New state     41 was old state     42
 New state     42 was old state     47
 New state     43 was old state     41
 New state     44 was old state     46
 New state     46 was old state     43
 New state     47 was old state     44
 New state     48 was old state     51
 New state     49 was old state     53
 New state     50 was old state     48
 New state     51 was old state     50
 New state     52 was old state     54
 New state     53 was old state     49
 New state     54 was old state     55
 New state     55 was old state     56
 New state     56 was old state     58
 New state     57 was old state     60
 New state     58 was old state     59
 New state     59 was old state     57
 New state     60 was old state     63
 Iteration     3 Dimension   480 NMult   360 NNew    120
 New state     37 was old state     38
 New state     38 was old state     37
 Iteration     4 Dimension   600 NMult   480 NNew    120
 Iteration     5 Dimension   690 NMult   600 NNew     90
 Iteration     6 Dimension   726 NMult   690 NNew     36
 Iteration     7 Dimension   728 NMult   726 NNew      2
 Iteration     8 Dimension   730 NMult   728 NNew      2
 ***********************************************************************
 Excited states from <AA,BB:AA,BB> singles matrix:
 ***********************************************************************
 
 ExtSpn:  IState=     1 X2= 1.024 Y2= 0.024 X2-Y2-1= 0.00D+00
          S2Grnd=  0.808 Ra=  0.086 Rb=  0.055 T=  0.117 S2Ext=  0.257 S2=  1.065
 ExtSpn:  IState=     2 X2= 1.014 Y2= 0.014 X2-Y2-1=-4.44D-16
          S2Grnd=  0.808 Ra=  0.347 Rb=  0.184 T=  0.467 S2Ext=  0.998 S2=  1.806
 ExtSpn:  IState=     3 X2= 1.017 Y2= 0.017 X2-Y2-1=-1.33D-15
          S2Grnd=  0.808 Ra=  0.175 Rb=  0.182 T=  0.297 S2Ext=  0.654 S2=  1.462
 ExtSpn:  IState=     4 X2= 1.029 Y2= 0.029 X2-Y2-1= 1.11D-15
          S2Grnd=  0.808 Ra=  0.304 Rb=  0.271 T=  0.508 S2Ext=  1.082 S2=  1.890
 ExtSpn:  IState=     5 X2= 1.007 Y2= 0.007 X2-Y2-1=-8.88D-16
          S2Grnd=  0.808 Ra=  0.087 Rb=  0.126 T=  0.136 S2Ext=  0.350 S2=  1.157
 ExtSpn:  IState=     6 X2= 1.006 Y2= 0.006 X2-Y2-1=-5.55D-16
          S2Grnd=  0.808 Ra=  0.207 Rb=  0.447 T=  0.574 S2Ext=  1.229 S2=  2.036
 ExtSpn:  IState=     7 X2= 1.052 Y2= 0.052 X2-Y2-1=-3.33D-15
          S2Grnd=  0.808 Ra=  0.466 Rb=  0.472 T=  0.933 S2Ext=  1.870 S2=  2.678
 ExtSpn:  IState=     8 X2= 1.016 Y2= 0.016 X2-Y2-1= 2.22D-15
          S2Grnd=  0.808 Ra=  0.128 Rb=  0.144 T=  0.219 S2Ext=  0.492 S2=  1.299
 ExtSpn:  IState=     9 X2= 1.017 Y2= 0.017 X2-Y2-1=-2.66D-15
          S2Grnd=  0.808 Ra=  0.157 Rb=  0.248 T=  0.255 S2Ext=  0.660 S2=  1.467
 ExtSpn:  IState=    10 X2= 1.016 Y2= 0.016 X2-Y2-1=-1.11D-15
          S2Grnd=  0.808 Ra=  0.157 Rb=  0.215 T=  0.251 S2Ext=  0.623 S2=  1.430
 ExtSpn:  IState=    11 X2= 1.003 Y2= 0.003 X2-Y2-1= 6.66D-16
          S2Grnd=  0.808 Ra=  0.437 Rb=  0.263 T= -0.595 S2Ext=  0.105 S2=  0.913
 ExtSpn:  IState=    12 X2= 1.006 Y2= 0.006 X2-Y2-1=-6.66D-16
          S2Grnd=  0.808 Ra=  0.201 Rb=  0.110 T=  0.065 S2Ext=  0.375 S2=  1.183
 ExtSpn:  IState=    13 X2= 1.005 Y2= 0.005 X2-Y2-1=-2.00D-15
          S2Grnd=  0.808 Ra=  0.480 Rb=  0.457 T=  0.891 S2Ext=  1.827 S2=  2.635
 ExtSpn:  IState=    14 X2= 1.017 Y2= 0.017 X2-Y2-1= 1.11D-15
          S2Grnd=  0.808 Ra=  0.423 Rb=  0.433 T=  0.857 S2Ext=  1.713 S2=  2.520
 ExtSpn:  IState=    15 X2= 1.007 Y2= 0.007 X2-Y2-1=-3.33D-16
          S2Grnd=  0.808 Ra=  0.293 Rb=  0.291 T=  0.579 S2Ext=  1.163 S2=  1.970
 ExtSpn:  IState=    16 X2= 1.012 Y2= 0.012 X2-Y2-1= 2.22D-16
          S2Grnd=  0.808 Ra=  0.499 Rb=  0.497 T=  0.995 S2Ext=  1.991 S2=  2.799
 ExtSpn:  IState=    17 X2= 1.002 Y2= 0.002 X2-Y2-1= 1.11D-15
          S2Grnd=  0.808 Ra=  0.126 Rb=  0.185 T=  0.274 S2Ext=  0.585 S2=  1.393
 ExtSpn:  IState=    18 X2= 1.003 Y2= 0.003 X2-Y2-1= 0.00D+00
          S2Grnd=  0.808 Ra=  0.313 Rb=  0.352 T=  0.644 S2Ext=  1.309 S2=  2.117
 ExtSpn:  IState=    19 X2= 1.003 Y2= 0.003 X2-Y2-1=-2.11D-15
          S2Grnd=  0.808 Ra=  0.392 Rb=  0.385 T=  0.756 S2Ext=  1.533 S2=  2.340
 ExtSpn:  IState=    20 X2= 1.002 Y2= 0.002 X2-Y2-1=-1.11D-15
          S2Grnd=  0.808 Ra=  0.179 Rb=  0.230 T=  0.351 S2Ext=  0.759 S2=  1.567
 ExtSpn:  IState=    21 X2= 1.005 Y2= 0.005 X2-Y2-1=-1.33D-15
          S2Grnd=  0.808 Ra=  0.493 Rb=  0.499 T= -0.982 S2Ext=  0.010 S2=  0.817
 ExtSpn:  IState=    22 X2= 1.003 Y2= 0.003 X2-Y2-1= 8.88D-16
          S2Grnd=  0.808 Ra=  0.258 Rb=  0.288 T=  0.327 S2Ext=  0.873 S2=  1.681
 ExtSpn:  IState=    23 X2= 1.005 Y2= 0.005 X2-Y2-1=-2.22D-16
          S2Grnd=  0.808 Ra=  0.498 Rb=  0.315 T= -0.395 S2Ext=  0.418 S2=  1.225
 ExtSpn:  IState=    24 X2= 1.003 Y2= 0.003 X2-Y2-1= 1.78D-15
          S2Grnd=  0.808 Ra=  0.240 Rb=  0.213 T= -0.213 S2Ext=  0.240 S2=  1.048
 ExtSpn:  IState=    25 X2= 1.004 Y2= 0.004 X2-Y2-1= 1.11D-15
          S2Grnd=  0.808 Ra=  0.455 Rb=  0.415 T=  0.848 S2Ext=  1.718 S2=  2.525
 ExtSpn:  IState=    26 X2= 1.003 Y2= 0.003 X2-Y2-1=-3.33D-16
          S2Grnd=  0.808 Ra=  0.289 Rb=  0.263 T=  0.478 S2Ext=  1.029 S2=  1.837
 ExtSpn:  IState=    27 X2= 1.002 Y2= 0.002 X2-Y2-1=-7.77D-16
          S2Grnd=  0.808 Ra=  0.366 Rb=  0.331 T=  0.622 S2Ext=  1.319 S2=  2.127
 ExtSpn:  IState=    28 X2= 1.002 Y2= 0.002 X2-Y2-1=-3.33D-15
          S2Grnd=  0.808 Ra=  0.118 Rb=  0.217 T=  0.142 S2Ext=  0.477 S2=  1.285
 ExtSpn:  IState=    29 X2= 1.002 Y2= 0.002 X2-Y2-1= 4.44D-16
          S2Grnd=  0.808 Ra=  0.172 Rb=  0.246 T=  0.327 S2Ext=  0.746 S2=  1.553
 ExtSpn:  IState=    30 X2= 1.001 Y2= 0.001 X2-Y2-1=-1.67D-15
          S2Grnd=  0.808 Ra=  0.125 Rb=  0.042 T=  0.086 S2Ext=  0.253 S2=  1.061
 ExtSpn:  IState=    31 X2= 1.002 Y2= 0.002 X2-Y2-1=-2.22D-16
          S2Grnd=  0.808 Ra=  0.376 Rb=  0.349 T=  0.187 S2Ext=  0.912 S2=  1.719
 ExtSpn:  IState=    32 X2= 1.000 Y2= 0.000 X2-Y2-1= 2.66D-15
          S2Grnd=  0.808 Ra=  0.020 Rb=  0.061 T= -0.014 S2Ext=  0.068 S2=  0.875
 ExtSpn:  IState=    33 X2= 1.002 Y2= 0.002 X2-Y2-1=-1.44D-15
          S2Grnd=  0.808 Ra=  0.298 Rb=  0.543 T= -0.126 S2Ext=  0.715 S2=  1.523
 ExtSpn:  IState=    34 X2= 1.003 Y2= 0.003 X2-Y2-1= 1.11D-15
          S2Grnd=  0.808 Ra=  0.299 Rb=  0.590 T= -0.584 S2Ext=  0.305 S2=  1.112
 ExtSpn:  IState=    35 X2= 1.004 Y2= 0.004 X2-Y2-1= 1.55D-15
          S2Grnd=  0.808 Ra=  0.291 Rb=  0.480 T=  0.245 S2Ext=  1.015 S2=  1.823
 ExtSpn:  IState=    36 X2= 1.009 Y2= 0.009 X2-Y2-1=-1.33D-15
          S2Grnd=  0.808 Ra=  0.549 Rb=  0.398 T=  0.202 S2Ext=  1.149 S2=  1.957
 ExtSpn:  IState=    37 X2= 1.005 Y2= 0.005 X2-Y2-1= 2.22D-16
          S2Grnd=  0.808 Ra=  0.176 Rb=  0.691 T=  0.126 S2Ext=  0.993 S2=  1.800
 ExtSpn:  IState=    38 X2= 1.003 Y2= 0.003 X2-Y2-1=-5.55D-16
          S2Grnd=  0.808 Ra=  0.395 Rb=  0.316 T=  0.212 S2Ext=  0.923 S2=  1.730
 ExtSpn:  IState=    39 X2= 1.003 Y2= 0.003 X2-Y2-1=-1.33D-15
          S2Grnd=  0.808 Ra=  0.272 Rb=  0.507 T= -0.222 S2Ext=  0.557 S2=  1.365
 ExtSpn:  IState=    40 X2= 1.002 Y2= 0.002 X2-Y2-1=-5.55D-16
          S2Grnd=  0.808 Ra=  0.139 Rb=  0.337 T=  0.008 S2Ext=  0.484 S2=  1.292
 ExtSpn:  IState=    41 X2= 1.003 Y2= 0.003 X2-Y2-1= 8.88D-16
          S2Grnd=  0.808 Ra=  0.440 Rb=  0.218 T=  0.077 S2Ext=  0.735 S2=  1.543
 ExtSpn:  IState=    42 X2= 1.005 Y2= 0.005 X2-Y2-1= 2.22D-16
          S2Grnd=  0.808 Ra=  0.442 Rb=  0.474 T= -0.756 S2Ext=  0.159 S2=  0.967
 ExtSpn:  IState=    43 X2= 1.004 Y2= 0.004 X2-Y2-1=-6.66D-16
          S2Grnd=  0.808 Ra=  0.206 Rb=  0.417 T=  0.389 S2Ext=  1.013 S2=  1.821
 ExtSpn:  IState=    44 X2= 1.002 Y2= 0.002 X2-Y2-1=-9.99D-16
          S2Grnd=  0.808 Ra=  0.388 Rb=  0.117 T= -0.173 S2Ext=  0.332 S2=  1.139
 ExtSpn:  IState=    45 X2= 1.004 Y2= 0.004 X2-Y2-1= 8.88D-16
          S2Grnd=  0.808 Ra=  0.446 Rb=  0.291 T=  0.439 S2Ext=  1.176 S2=  1.983
 ExtSpn:  IState=    46 X2= 1.002 Y2= 0.002 X2-Y2-1=-2.33D-15
          S2Grnd=  0.808 Ra=  0.344 Rb=  0.368 T=  0.325 S2Ext=  1.037 S2=  1.845
 ExtSpn:  IState=    47 X2= 1.002 Y2= 0.002 X2-Y2-1= 8.88D-16
          S2Grnd=  0.808 Ra=  0.419 Rb=  0.504 T= -0.439 S2Ext=  0.484 S2=  1.292
 ExtSpn:  IState=    48 X2= 1.003 Y2= 0.003 X2-Y2-1= 2.22D-16
          S2Grnd=  0.808 Ra=  0.488 Rb=  0.281 T=  0.466 S2Ext=  1.235 S2=  2.043
 ExtSpn:  IState=    49 X2= 1.002 Y2= 0.002 X2-Y2-1=-1.33D-15
          S2Grnd=  0.808 Ra=  0.560 Rb=  0.341 T=  0.819 S2Ext=  1.720 S2=  2.528
 ExtSpn:  IState=    50 X2= 1.001 Y2= 0.001 X2-Y2-1= 1.11D-15
          S2Grnd=  0.808 Ra=  0.532 Rb=  0.346 T= -0.609 S2Ext=  0.269 S2=  1.077
 ExtSpn:  IState=    51 X2= 1.003 Y2= 0.003 X2-Y2-1=-4.44D-16
          S2Grnd=  0.808 Ra=  0.395 Rb=  0.445 T=  0.144 S2Ext=  0.985 S2=  1.793
 ExtSpn:  IState=    52 X2= 1.002 Y2= 0.002 X2-Y2-1=-1.33D-15
          S2Grnd=  0.808 Ra=  0.314 Rb=  0.544 T= -0.205 S2Ext=  0.654 S2=  1.461
 ExtSpn:  IState=    53 X2= 1.002 Y2= 0.002 X2-Y2-1= 6.66D-16
          S2Grnd=  0.808 Ra=  0.370 Rb=  0.500 T=  0.329 S2Ext=  1.199 S2=  2.007
 ExtSpn:  IState=    54 X2= 1.002 Y2= 0.002 X2-Y2-1= 2.44D-15
          S2Grnd=  0.808 Ra=  0.210 Rb=  0.156 T= -0.099 S2Ext=  0.268 S2=  1.075
 ExtSpn:  IState=    55 X2= 1.007 Y2= 0.007 X2-Y2-1=-1.67D-15
          S2Grnd=  0.808 Ra=  0.498 Rb=  0.414 T= -0.734 S2Ext=  0.177 S2=  0.985
 ExtSpn:  IState=    56 X2= 1.003 Y2= 0.003 X2-Y2-1=-2.00D-15
          S2Grnd=  0.808 Ra=  0.248 Rb=  0.267 T= -0.261 S2Ext=  0.255 S2=  1.062
 ExtSpn:  IState=    57 X2= 1.004 Y2= 0.004 X2-Y2-1= 1.33D-15
          S2Grnd=  0.808 Ra=  0.320 Rb=  0.385 T= -0.538 S2Ext=  0.168 S2=  0.975
 ExtSpn:  IState=    58 X2= 1.006 Y2= 0.006 X2-Y2-1= 2.89D-15
          S2Grnd=  0.808 Ra=  0.611 Rb=  0.220 T= -0.422 S2Ext=  0.409 S2=  1.216
 ExtSpn:  IState=    59 X2= 1.007 Y2= 0.007 X2-Y2-1=-4.44D-16
          S2Grnd=  0.808 Ra=  0.663 Rb=  0.306 T= -0.761 S2Ext=  0.208 S2=  1.016
 ExtSpn:  IState=    60 X2= 1.008 Y2= 0.008 X2-Y2-1=-2.33D-15
          S2Grnd=  0.808 Ra=  0.571 Rb=  0.407 T= -0.711 S2Ext=  0.266 S2=  1.074
 Ground to excited state transition densities written to RWF  633
 Ground to excited state transition electric dipole moments (Au):
       state          X           Y           Z        Dip. S.      Osc.
         1         0.0040      0.1051     -0.0586      0.0145      0.0010
         2        -0.0312      0.5182     -0.2191      0.3175      0.0255
         3         0.0063      0.0623     -0.0221      0.0044      0.0004
         4        -0.0330      0.5116     -0.1939      0.3004      0.0250
         5         0.0500     -0.0230      0.0784      0.0092      0.0008
         6        -0.0570      0.8598     -0.3353      0.8549      0.0757
         7        -0.0089      0.0277     -0.0450      0.0029      0.0003
         8        -0.0418     -0.5274     -0.5452      0.5771      0.0532
         9         0.0433      0.7446     -0.1755      0.5871      0.0556
        10        -0.0317      0.2826     -0.6856      0.5510      0.0535
        11        -0.0153     -0.8894      0.2759      0.8674      0.0868
        12        -0.2199      1.5347     -0.5272      2.6815      0.2737
        13        -0.0683      0.4195     -0.1249      0.1962      0.0202
        14         0.0157     -0.1360      0.0141      0.0189      0.0020
        15         0.0269     -0.0737      0.0661      0.0105      0.0011
        16        -0.0014     -0.0059     -0.0223      0.0005      0.0001
        17         0.2224      0.0162      0.0002      0.0497      0.0056
        18        -0.0065      0.0749     -0.0303      0.0066      0.0008
        19         0.1922     -0.0035      0.0689      0.0417      0.0049
        20        -0.1469      0.0288      0.0947      0.0314      0.0037
        21         0.3237      0.0862      0.1989      0.1518      0.0183
        22        -0.4397     -0.0118      0.2547      0.2583      0.0319
        23         1.0836     -0.2993     -0.1221      1.2788      0.1592
        24        -0.5077      0.0060      0.2397      0.3152      0.0394
        25        -0.0201     -0.0501     -0.0417      0.0046      0.0006
        26         0.2199     -0.1657      0.0402      0.0774      0.0099
        27        -0.1873      0.0563     -0.1252      0.0539      0.0070
        28        -0.0417     -0.0401     -0.1982      0.0426      0.0056
        29         0.1044      0.0639     -0.1762      0.0460      0.0060
        30        -0.0468      0.3202     -0.0942      0.1136      0.0149
        31         0.1042     -0.0448      0.1690      0.0414      0.0055
        32         0.1538      0.0689      0.0731      0.0337      0.0045
        33         0.0186      0.1211     -0.0298      0.0159      0.0021
        34         0.9656     -0.0034      0.3507      1.0554      0.1415
        35         0.2364     -0.0125      0.0419      0.0578      0.0078
        36         0.5545      0.0282      0.1138      0.3212      0.0436
        37        -0.4456     -0.1318     -0.1734      0.2460      0.0337
        38        -0.1535      0.0257     -0.4487      0.2255      0.0310
        39         0.0877      0.3632      0.3762      0.2811      0.0390
        40        -0.0073     -0.4649      0.1477      0.2380      0.0332
        41         0.0958      0.5484     -0.2191      0.3579      0.0506
        42         0.3315     -0.3627      0.5046      0.4961      0.0710
        43         0.2433     -0.0732      0.2040      0.1062      0.0153
        44        -0.3310      0.2343     -0.1952      0.2025      0.0295
        45        -0.0507      0.2093      0.3006      0.1367      0.0201
        46        -0.2935      0.2930     -0.0918      0.1804      0.0267
        47        -0.2561     -0.0311     -0.3986      0.2254      0.0335
        48         0.0183     -0.1366     -0.2221      0.0683      0.0102
        49         0.0553      0.0577     -0.1575      0.0312      0.0047
        50        -0.0074     -0.0543     -0.1374      0.0219      0.0033
        51         0.0119     -0.3853      0.1303      0.1655      0.0250
        52        -0.1451      0.2143      0.1358      0.0854      0.0130
        53         0.0726      0.2034     -0.1657      0.0741      0.0114
        54        -0.1174      0.3382     -0.1728      0.1581      0.0243
        55         0.1069      1.1384     -0.4280      1.4907      0.2300
        56         0.1498      0.1901     -0.4403      0.2525      0.0391
        57        -0.1999      0.1444      0.3653      0.1942      0.0302
        58        -0.3533      0.3006     -0.1219      0.2301      0.0361
        59        -0.3702     -0.2377     -1.2564      1.7722      0.2817
        60        -1.1275      0.3560      0.1302      1.4150      0.2269
 Ground to excited state transition velocity dipole moments (Au):
       state          X           Y           Z        Dip. S.      Osc.
         1        -0.0001     -0.0131      0.0071      0.0002      0.0014
         2         0.0039     -0.0615      0.0266      0.0045      0.0249
         3         0.0000     -0.0071      0.0046      0.0001      0.0004
         4         0.0035     -0.0636      0.0228      0.0046      0.0244
         5        -0.0070      0.0005     -0.0107      0.0002      0.0008
         6         0.0076     -0.1112      0.0438      0.0143      0.0720
         7         0.0014     -0.0041      0.0061      0.0001      0.0003
         8         0.0073      0.0726      0.0801      0.0117      0.0566
         9        -0.0067     -0.1025      0.0227      0.0111      0.0519
        10         0.0046     -0.0370      0.1043      0.0123      0.0562
        11         0.0034      0.1362     -0.0432      0.0204      0.0907
        12         0.0343     -0.2333      0.0803      0.0621      0.2703
        13         0.0108     -0.0640      0.0190      0.0046      0.0197
        14        -0.0029      0.0225     -0.0021      0.0005      0.0022
        15        -0.0039      0.0114     -0.0123      0.0003      0.0012
        16         0.0002      0.0011      0.0039      0.0000      0.0001
        17        -0.0386     -0.0039     -0.0014      0.0015      0.0059
        18         0.0014     -0.0124      0.0063      0.0002      0.0008
        19        -0.0340      0.0003     -0.0121      0.0013      0.0049
        20         0.0270     -0.0052     -0.0159      0.0010      0.0037
        21        -0.0583     -0.0174     -0.0384      0.0052      0.0190
        22         0.0812      0.0014     -0.0467      0.0088      0.0316
        23        -0.1998      0.0560      0.0229      0.0436      0.1555
        24         0.0952     -0.0035     -0.0423      0.0109      0.0387
        25         0.0039      0.0091      0.0074      0.0002      0.0005
        26        -0.0416      0.0308     -0.0087      0.0028      0.0096
        27         0.0364     -0.0104      0.0242      0.0020      0.0070
        28         0.0069      0.0069      0.0360      0.0014      0.0048
        29        -0.0214     -0.0111      0.0322      0.0016      0.0055
        30         0.0091     -0.0609      0.0196      0.0042      0.0141
        31        -0.0200      0.0089     -0.0321      0.0015      0.0051
        32        -0.0299     -0.0129     -0.0143      0.0013      0.0042
        33        -0.0026     -0.0238      0.0048      0.0006      0.0020
        34        -0.1914      0.0010     -0.0678      0.0412      0.1367
        35        -0.0463      0.0010     -0.0106      0.0023      0.0074
        36        -0.1124     -0.0032     -0.0231      0.0132      0.0432
        37         0.0916      0.0237      0.0361      0.0103      0.0333
        38         0.0312     -0.0054      0.0916      0.0094      0.0304
        39        -0.0183     -0.0745     -0.0801      0.0123      0.0394
        40         0.0022      0.0942     -0.0319      0.0099      0.0315
        41        -0.0206     -0.1148      0.0466      0.0158      0.0497
        42        -0.0736      0.0768     -0.1084      0.0231      0.0716
        43        -0.0504      0.0148     -0.0469      0.0050      0.0153
        44         0.0722     -0.0511      0.0433      0.0097      0.0296
        45         0.0091     -0.0453     -0.0657      0.0064      0.0195
        46         0.0636     -0.0662      0.0196      0.0088      0.0265
        47         0.0577      0.0066      0.0862      0.0108      0.0323
        48        -0.0021      0.0307      0.0495      0.0034      0.0101
        49        -0.0114     -0.0127      0.0356      0.0016      0.0046
        50         0.0010      0.0103      0.0288      0.0009      0.0028
        51        -0.0027      0.0865     -0.0286      0.0083      0.0244
        52         0.0311     -0.0460     -0.0302      0.0040      0.0117
        53        -0.0181     -0.0457      0.0386      0.0039      0.0113
        54         0.0259     -0.0776      0.0418      0.0084      0.0244
        55        -0.0255     -0.2639      0.0978      0.0798      0.2299
        56        -0.0352     -0.0433      0.1042      0.0140      0.0400
        57         0.0466     -0.0362     -0.0879      0.0112      0.0321
        58         0.0811     -0.0714      0.0326      0.0127      0.0361
        59         0.0865      0.0547      0.2968      0.0986      0.2755
        60         0.2687     -0.0867     -0.0327      0.0808      0.2239
 Ground to excited state transition magnetic dipole moments (Au):
       state          X           Y           Z
         1         0.3246     -0.0012     -0.0310
         2         0.6831      0.0701     -0.1025
         3         0.1315      0.0032     -0.0273
         4         0.6642      0.0882     -0.0798
         5         0.0887      0.0698     -0.0527
         6         1.2889      0.1570     -0.0593
         7         0.0165     -0.0039      0.0026
         8        -0.6538     -0.1199     -0.1895
         9         1.5453      0.2868      0.2854
        10         0.9770      0.1770      0.2011
        11        -0.1300     -0.0970     -0.6910
        12         0.3492      0.0511     -0.1367
        13         0.1124      0.0092     -0.0744
        14        -0.0367      0.0017      0.0008
        15         0.0956     -0.0118      0.0398
        16         0.0132      0.0055     -0.0019
        17        -0.3005      0.1303     -0.0971
        18         0.0852     -0.0427      0.0402
        19        -0.1279      0.0970     -0.0619
        20        -0.0332     -0.2182      0.0706
        21        -0.0719      0.9630     -0.3670
        22        -0.0219     -0.1545     -0.0286
        23        -0.2259      0.3130     -0.0878
        24        -0.1734     -0.3715      0.1772
        25        -0.0660     -0.0397      0.0016
        26        -0.2164     -0.0245      0.0066
        27         0.1249     -0.0352      0.0084
        28        -0.0707     -0.0698      0.0630
        29         0.0548      0.0112      0.0153
        30         0.3398      0.0136     -0.1021
        31        -0.3004     -0.0214      0.0093
        32         0.0523      0.0854     -0.0252
        33        -0.0408     -0.0516     -0.0451
        34        -0.0361      0.2492      0.0711
        35         0.1249      0.1020      0.0723
        36         0.1250      0.1891     -0.0437
        37         0.0676     -0.1207      0.1239
        38         0.0453      0.0888     -0.1121
        39        -0.4297     -0.0507      0.0692
        40         0.0884      0.0095      0.0327
        41        -0.3971      0.0719     -0.0606
        42        -0.8405     -0.2194      0.3355
        43        -0.2228     -0.1205      0.1076
        44         0.3314      0.0116     -0.0440
        45         0.5005      0.2025     -0.2466
        46         0.1552      0.0274      0.0726
        47        -0.0184     -0.1164      0.1673
        48         0.0038     -0.0545      0.0335
        49        -0.2011     -0.0933      0.0837
        50         0.0660      0.3003     -0.1970
        51        -0.2270     -0.0722     -0.0398
        52         0.0276     -0.0246      0.1362
        53         0.1130      0.0507     -0.0360
        54         0.3593     -0.0668     -0.1345
        55         1.5915      0.5272     -0.1772
        56         0.3910     -0.5381      0.2208
        57         0.3066      0.9669     -0.7167
        58         0.6285      0.1962     -0.0078
        59         0.3464     -1.4528      1.0145
        60        -0.1190      0.6914     -0.0464
 Ground to excited state transition velocity quadrupole moments (Au):
       state          XX          YY          ZZ          XY          XZ          YZ
         1         0.0009     -0.0327      0.0285      0.0009      0.0032     -0.0214
         2         0.0081     -0.0470      0.0517     -0.0079      0.0092     -0.0796
         3         0.0250      0.0869     -0.0073     -0.0070      0.0136     -0.0375
         4         0.0019     -0.1386      0.0516     -0.0003      0.0002     -0.0503
         5         0.0592     -0.0108     -0.0793     -0.0049      0.0101      0.0486
         6         0.0248     -0.1226      0.0903     -0.0037      0.0111     -0.1120
         7        -0.0181      0.0017      0.0281     -0.0013     -0.0028      0.0100
         8        -0.4260      0.4383      0.3698     -0.0966     -0.0760     -0.0364
         9         0.1059     -0.1501     -0.0085      0.0253      0.0360      0.0200
        10        -0.3896      0.3924      0.3400     -0.0852     -0.0376     -0.1028
        11         0.0741      0.4140     -0.2905     -0.0811     -0.0780      0.3888
        12         0.0495     -0.5515      0.4483      0.0196      0.0092     -0.5759
        13         0.0361     -0.1487      0.1060      0.0033      0.0005     -0.1507
        14        -0.0555      0.1247     -0.0482     -0.0195     -0.0020      0.0455
        15         0.1144     -0.1532     -0.0755      0.0352     -0.0020      0.1785
        16        -0.0336      0.0232      0.0112     -0.0065     -0.0034     -0.0031
        17         0.1083     -0.0900      0.0359      0.0411      0.0753     -0.1138
        18         0.0274      0.0039      0.0905      0.0198      0.0068      0.0197
        19         0.0853      0.0114     -0.0284      0.0330      0.0725     -0.0614
        20         0.3086     -0.0379      0.0176      0.0315      0.0061     -0.0039
        21        -0.6192      0.2120      0.4705     -0.2187     -0.3984      0.0569
        22         0.7236      0.0135     -0.1942     -0.0942     -0.1804     -0.0454
        23        -1.4842      0.3891      0.2102      0.1390      0.4475     -0.0243
        24         1.2942     -0.3125     -0.1057      0.0670     -0.1822      0.2206
        25        -0.0552      0.0166      0.0640     -0.0089     -0.0148     -0.0099
        26        -0.2647      0.0812      0.0506      0.0497      0.0938      0.0464
        27         0.1118     -0.0094      0.0099     -0.0556     -0.0770     -0.0411
        28        -0.1041     -0.3291      0.2556      0.0478     -0.0593      0.1815
        29        -0.2426     -0.1231      0.1287      0.0425      0.0244      0.1241
        30         0.0058      0.0807     -0.0542     -0.0448      0.0283     -0.2222
        31         0.2410     -0.0236     -0.0329      0.0650      0.0596     -0.0358
        32        -0.0423      0.0274      0.0071      0.0180      0.0262     -0.0012
        33         0.3727     -0.2389     -0.0646      0.0151      0.0173     -0.0080
        34        -0.4874      0.2213      0.0416      0.2257      0.3997      0.0405
        35        -0.3245     -0.2894      0.1153      0.0796      0.0254      0.1487
        36        -0.6186     -0.0155      0.1046      0.1264      0.1871      0.1795
        37         0.1596      0.1220     -0.0392     -0.1234     -0.1910     -0.1101
        38        -0.2364     -0.4566      0.3086     -0.0995     -0.2104      0.0873
        39         0.3790      0.0601     -0.0489      0.1396      0.1968     -0.3558
        40         0.1436      0.3367     -0.2492     -0.0606     -0.0105      0.1776
        41        -0.0644     -0.7640      0.5258      0.0489      0.0644     -0.4195
        42         1.1456     -0.4050     -0.0822      0.4950      0.1846      0.7009
        43         0.6852     -1.0287     -0.0444      0.2576      0.0134      0.5892
        44        -0.3817      0.5400     -0.0307     -0.2310     -0.0850     -0.4900
        45         0.1851      0.2225     -0.5330     -0.1445      0.0477     -0.1818
        46        -0.3894      0.4945     -0.0145     -0.1506     -0.0161     -0.6297
        47        -0.5717      0.5137      0.3216     -0.0488     -0.1945     -0.0569
        48        -0.1077     -0.0643      0.2255     -0.0250     -0.0461      0.2028
        49        -0.0629     -0.2161      0.3352      0.1067      0.0488     -0.0904
        50         0.2153      0.2093      0.1107     -0.1327     -0.2123      0.0040
        51        -0.1862      0.7383     -0.4018     -0.0780      0.0550      0.0470
        52         0.0285     -0.3454      0.0907      0.0238     -0.0509      0.0089
        53        -0.0928      0.2101      0.0438     -0.0306      0.1120     -0.3467
        54         0.2731     -0.6596      0.1671      0.0006     -0.0489      0.0165
        55         0.5554     -0.6344     -0.0347     -0.2064      0.0117     -0.3507
        56        -0.6476      0.1797     -0.1207      0.2844      0.5932     -0.3456
        57         0.8705     -0.2769      0.2417     -0.4337     -0.9378      0.2906
        58         1.0613     -1.7812      0.6365     -0.0471     -0.6399      1.1192
        59        -1.7421      0.1036      0.3110      0.4376      0.7145      0.1541
        60        -1.9661      0.4436      0.9985     -0.7095     -1.4931     -0.1934
 <0|del|b> * <b|rxdel|0> + <0|del|b> * <b|delr+rdel|0>
 Rotatory Strengths (R) in cgs (10**-40 erg-esu-cm/Gauss)
       state          XX          YY          ZZ    R(velocity)    E-M Angle
         1        -0.5212     -0.8416     -0.1847     -0.5158       92.74
         2       -19.6419     -0.5356     -5.6741     -8.6172       95.42
         3        -0.2364     -0.2509     -0.3164     -0.2679       97.13
         4       -20.9753      0.9585     -8.7988     -9.6052       96.41
         5         1.7636     -1.2222     -0.6618     -0.0401       90.00
         6       -50.5631     17.2784    -21.4764    -18.2537       93.79
         7         0.0318      0.1583      0.0952      0.0951       90.00
         8       -66.7268    -31.9875    -47.9602    -48.8915      112.51
         9       -46.3910    -11.5114   -107.8894    -55.2639      101.43
        10        10.0734     82.3543     -0.4418     30.6620       80.29
        11        72.4824     64.1218    -60.2869     25.4391       80.81
        12       -44.3081    -46.9638     40.8157    -16.8187       96.65
        13        -4.3541     -4.3236      5.0765     -1.2004       94.94
        14         0.2702     -0.1538      0.5225      0.2129       80.10
        15        -2.2434     -2.4203      0.3543     -1.4365      123.65
        16        -0.0489      0.0413      0.0112      0.0012       90.00
        17        -0.2830     33.5861     13.2910     15.5314       32.18
        18         2.0209      0.5716      1.0973      1.2299       51.19
        19         0.7150     15.1697      4.6159      6.8335       34.38
        20        -0.9048     -3.1965      0.6142     -1.1624       96.91
        21        -2.4967     12.8181     -4.5723      1.9164       88.86
        22        11.0168    -16.2805      2.7750     -0.8296       92.52
        23       -12.0192     84.7820    156.8401     76.5343       42.79
        24       -18.2587     -0.3159    -67.1507    -28.5751      119.19
        25        -0.5192     -0.4067     -1.3265     -0.7508      129.65
        26        -7.6243     13.7325     24.0911     10.0664       44.29
        27        -2.8766      8.3954     13.1678      6.2289       28.85
        28         7.0875      2.3617     -4.7478      1.5671       72.78
        29         3.6294     -8.5114      1.9739     -0.9694      110.18
        30        -3.5671     -0.0998      4.5993      0.3108       89.35
        31        -5.5282     15.1512     10.0290      6.5507       61.88
        32        -1.1738     -1.6179     -5.3921     -2.7280      128.94
        33         2.6412     -0.2928      1.5913      1.3132       55.09
        34       -35.6787     16.9374     26.9436      2.7341       87.48
        35        -2.6765    -22.0159      2.1529     -7.5131      140.14
        36        -3.3331    -52.6009      8.5639    -15.7900      120.97
        37         2.9068      8.6633     15.3139      8.9614       65.49
        38       -36.0107      5.1079     -1.1213    -10.6747      129.96
        39         2.9312     34.0297    -16.1867      6.9247       82.77
        40         4.6831     -4.0216     -0.4984      0.0544       90.00
        41        -2.3668     19.5636    -26.8912     -3.2315       93.25
        42      -199.4522     45.3960    182.4260      9.4566       86.51
        43       -31.3113    -18.7282     64.4200      4.7935       76.91
        44       -27.2705     -5.4249    102.0420     23.1155       49.44
        45        29.9702     15.4229     -8.1414     12.4172       75.89
        46        -7.0215    -41.1091     78.3414     10.0703       54.40
        47        17.0182     22.6487      0.2462     13.3044       53.70
        48         0.2543      3.8740     -4.1944     -0.0220       90.00
        49        13.5004      3.9487      2.8788      6.7760       46.31
        50        -6.6049     -2.7814      1.5156     -2.6236      103.02
        51       -11.8934     -0.9500     -1.1751     -4.6728      101.79
        52        -9.3981     -3.5254      6.3015     -2.2073      103.81
        53         0.3584      6.1678    -24.1834     -5.8857      135.50
        54        -6.4484      6.2633     27.3866      9.0672       75.65
        55      -265.0735    -43.9977   -292.8966   -200.6559      114.43
        56       154.5396    -12.5085    -43.0291     33.0007       66.86
        57        48.7792     80.0064     -0.4631     42.7742       71.24
        58       -92.3806    214.8035    -12.1681     36.7516       60.41
        59       463.3808    318.0890    -35.1765    248.7645       63.64
        60      -242.1647   -155.2403    131.5981    -88.6023      116.90
 1/2[<0|r|b>*<b|rxdel|0> + (<0|rxdel|b>*<b|r|0>)*]
 Rotatory Strengths (R) in cgs (10**-40 erg-esu-cm/Gauss)
       state          XX          YY          ZZ     R(length)
         1        -0.9239      0.0906     -1.2872     -0.7068
         2        15.0902    -25.7033    -15.8767     -8.8299
         3        -0.5858     -0.1399     -0.4258     -0.3839
         4        15.4868    -31.8981    -10.9411     -9.1174
         5        -3.1354      1.1361      2.9237      0.3081
         6        51.9627    -95.4599    -14.0570    -19.1847
         7         0.1036      0.0763      0.0813      0.0871
         8       -19.3179    -44.6963    -73.0612    -45.6918
         9       -47.2708   -151.0099     35.4222    -54.2862
        10        21.9215    -35.3685     97.4890     28.0140
        11        -1.4081    -60.9925    134.8027     24.1340
        12        54.3013    -55.5058    -50.9633    -17.3893
        13         5.4283     -2.7205     -6.5760     -1.2894
        14         0.4070      0.1624     -0.0084      0.1870
        15        -1.8224     -0.6154     -1.8610     -1.4329
        16         0.0132      0.0227     -0.0307      0.0018
        17        47.2452     -1.4908      0.0119     15.2554
        18         0.3913      2.2629      0.8630      1.1724
        19        17.3884      0.2387      3.0184      6.8818
        20        -3.4442      4.4431     -4.7267     -1.2426
        21        16.4575    -58.7150     51.6339      3.1255
        22        -6.8089     -1.2865      5.1552     -0.9801
        23       173.1262     66.2605     -7.5845     77.2674
        24       -62.2596      1.5879    -30.0350    -30.2356
        25        -0.9362     -1.4074      0.0467     -0.7657
        26        33.6501     -2.8754     -0.1891     10.1952
        27        16.5495      1.4025      0.7470      6.2330
        28        -2.0879     -1.9799      8.8238      1.5853
        29        -4.0428     -0.5052      1.9116     -0.8788
        30        11.2552     -3.0713     -6.7976      0.4621
        31        22.1459     -0.6766     -1.1138      6.7852
        32        -5.6860     -4.1566      1.3017     -2.8470
        33         0.5359      4.4217     -0.9519      1.3352
        34        24.6400      0.5979    -17.6454      2.5308
        35       -20.8841      0.9024     -2.1440     -7.3752
        36       -49.0188     -3.7768      3.5205    -16.4250
        37        21.3046    -11.2441     15.1997      8.4201
        38         4.9157     -1.6125    -35.5718    -10.7562
        39        26.6565     13.0295    -18.4203      7.0885
        40         0.4536      3.1201     -3.4176      0.0520
        41        26.9126    -27.9011     -9.3912     -3.4599
        42       197.0244    -56.2648   -119.7383      7.0071
        43        38.3350     -6.2393    -15.5285      5.5224
        44        77.5661     -1.9270     -6.0709     23.1894
        45        17.9410    -29.9593     52.4364     13.4727
        46        32.2079     -5.6687      4.7155     10.4182
        47        -3.3268     -2.5608     47.1671     13.7598
        48        -0.0492     -5.2682      5.2628     -0.0182
        49         7.8635      3.8059      9.3263      6.9986
        50         0.3451     11.5319    -19.1432     -2.4221
        51         1.9118    -19.6690      3.6675     -4.6966
        52         2.8311      3.7295    -13.0853     -2.1749
        53        -5.8050     -7.2949     -4.2146     -5.7715
        54        29.8253     15.9800    -16.4415      9.7879
        55      -120.3517   -424.4199    -53.6358   -199.4692
        56       -41.4115     72.3321     68.7704     33.2303
        57        43.3328    -98.7204    185.1429     43.2518
        58       157.0440    -41.7041     -0.6764     38.2212
        59        90.6853   -244.1788    901.3583    249.2883
        60       -94.8654   -174.0845      4.2766    -88.2244
  1/2[<0|del|b>*<b|r|0> + (<0|r|b>*<b|del|0>)*] (Au)
       state          X           Y           Z        Dip. S.   Osc.(frdel)
         1         0.0000     -0.0014     -0.0004      0.0018      0.0012
         2        -0.0001     -0.0318     -0.0058      0.0378      0.0252
         3         0.0000     -0.0004     -0.0001      0.0005      0.0004
         4        -0.0001     -0.0325     -0.0044      0.0371      0.0247
         5        -0.0003      0.0000     -0.0008      0.0012      0.0008
         6        -0.0004     -0.0956     -0.0147      0.1107      0.0738
[...]
    23  C    0.000000   0.000000   0.000000   0.000000   0.000001   0.000000
    24  C    0.000676  -0.000431   0.000042   0.000041   0.000086   0.000000
    25  C   -0.001412  -0.000651   0.000154   0.000032  -0.000183   0.000000
    26  C   -0.000651   0.002995  -0.000436   0.000098  -0.000291   0.000000
    27  C    0.000154  -0.000436  -0.000103  -0.000031   0.000105   0.000000
    28  C    0.000032   0.000098  -0.000031   0.000439  -0.000083   0.000000
    29  C   -0.000183  -0.000291   0.000105  -0.000083  -0.000338   0.000000
    30  H    0.000000   0.000000   0.000000   0.000000   0.000000  -0.009921
    31  H    0.000000   0.000000   0.000000   0.000000   0.000000   0.000034
    32  H    0.000000   0.000000   0.000000   0.000000   0.000000   0.000004
    33  H    0.000003   0.000000   0.000000   0.000000   0.000001   0.000000
    34  H    0.000000   0.000000   0.000000   0.000000   0.000000   0.000000
    35  H   -0.000001   0.000000   0.000000   0.000000  -0.000002   0.000000
    36  H    0.000000   0.000000   0.000000   0.000000   0.000000   0.000000
    37  H    0.000000   0.000000   0.000000   0.000000   0.000000   0.000000
    38  H   -0.000001   0.000000   0.000000   0.000000   0.000000   0.000002
    39  H    0.000000   0.000000   0.000000   0.000000   0.000000   0.000000
    40  H    0.000000   0.000000   0.000000   0.000000   0.000000   0.000000
    41  H    0.000000   0.000000   0.000000   0.000000   0.000000   0.000000
    42  H   -0.000001   0.000000   0.000000   0.000000   0.000001   0.000000
    43  H    0.001010  -0.000889   0.000030  -0.000011   0.000117   0.000000
    44  H   -0.000005   0.000009   0.000014   0.000000   0.000000   0.000000
    45  H   -0.000016   0.000011  -0.000010   0.000013  -0.000002   0.000000
    46  H    0.000001  -0.000002   0.000005   0.000001   0.000003   0.000000
    47  H   -0.000014  -0.000017   0.000011  -0.000033   0.000053   0.000000
              31         32         33         34         35         36
     1  C   -0.000391  -0.000055  -0.000003   0.000000   0.000000   0.000000
     2  C   -0.000183   0.000466   0.000009   0.000000   0.000000   0.000000
     3  C   -0.000453   0.001806  -0.000459   0.000000   0.000000   0.000000
     4  C    0.000033   0.000123  -0.000137   0.000000   0.000001   0.000000
     5  C   -0.000006   0.000001  -0.000009  -0.000120  -0.000007   0.000001
     6  C    0.000041  -0.000029  -0.000026  -0.000032  -0.000001   0.000000
     7  C   -0.000020  -0.000059  -0.000324  -0.000001   0.000015   0.000000
     8  C    0.000000   0.000008   0.000182   0.000003   0.000224   0.000008
     9  C    0.000000   0.000000   0.000000   0.001022  -0.000009  -0.000054
    10  C    0.000000   0.000000   0.000001   0.000778  -0.000033  -0.000027
    11  C    0.000000   0.000000   0.000013  -0.000049  -0.000549  -0.000056
    12  C    0.000000   0.000000   0.000001   0.000004  -0.000070   0.000114
    13  C    0.000000   0.000000   0.000000  -0.000057  -0.000426   0.001812
    14  C    0.000000   0.000000   0.000000   0.000893   0.000014   0.000468
    15  H   -0.000001   0.000000   0.000000   0.000023   0.000000   0.000000
    16  C    0.000000  -0.000001   0.000091   0.000000   0.000042  -0.000001
    17  O    0.000000   0.000000  -0.000079   0.000000  -0.000017   0.000000
    18  C    0.000000   0.000000  -0.000040   0.000000  -0.000115   0.000001
    19  C    0.000000   0.000000  -0.000014   0.000000  -0.000003   0.000000
    20  C    0.000000   0.000000  -0.000001   0.000000   0.000000   0.000000
    21  C    0.000000   0.000000   0.000000   0.000000   0.000000   0.000000
    22  C    0.000000   0.000000   0.000000   0.000000   0.000004   0.000000
    23  C    0.000000   0.000000   0.000003   0.000000   0.000014   0.000000
    24  C    0.000000   0.000000  -0.000019   0.000000  -0.000011   0.000000
    25  C    0.000000   0.000000   0.000003   0.000000  -0.000001   0.000000
    26  C    0.000000   0.000000   0.000000   0.000000   0.000000   0.000000
    27  C    0.000000   0.000000   0.000000   0.000000   0.000000   0.000000
    28  C    0.000000   0.000000   0.000000   0.000000   0.000000   0.000000
    29  C    0.000000   0.000000   0.000001   0.000000  -0.000002   0.000000
    30  H    0.000034   0.000004   0.000000   0.000000   0.000000   0.000000
    31  H    0.004721   0.000072  -0.000002   0.000000   0.000000   0.000000
    32  H    0.000072  -0.010789   0.000076   0.000000   0.000000   0.000000
    33  H   -0.000002   0.000076   0.004543   0.000000   0.000001   0.000000
    34  H    0.000000   0.000000   0.000000  -0.009972   0.000000   0.000004
    35  H    0.000000   0.000000   0.000001   0.000000   0.004943   0.000080
    36  H    0.000000   0.000000   0.000000   0.000004   0.000080  -0.010815
    37  H    0.000000   0.000000   0.000000   0.000033  -0.000002   0.000072
    38  H    0.000000   0.000000   0.000000   0.000000   0.000000   0.000000
    39  H    0.000000   0.000000   0.000000   0.000000   0.000000   0.000000
    40  H    0.000000   0.000000   0.000000   0.000000   0.000000   0.000000
    41  H    0.000000   0.000000   0.000000   0.000000   0.000001   0.000000
    42  H    0.000000   0.000000   0.000000   0.000000  -0.000049   0.000000
    43  H    0.000000   0.000000  -0.000002   0.000000  -0.000001   0.000000
    44  H    0.000000   0.000000   0.000000   0.000000   0.000000   0.000000
    45  H    0.000000   0.000000   0.000000   0.000000   0.000000   0.000000
    46  H    0.000000   0.000000   0.000000   0.000000   0.000000   0.000000
    47  H    0.000000   0.000000   0.000000   0.000000   0.000001   0.000000
              37         38         39         40         41         42
     1  C    0.000000   0.000202   0.000001   0.000000   0.000000   0.000000
     2  C    0.000000  -0.000059   0.000000   0.000000   0.000000   0.000000
     3  C    0.000000  -0.000117  -0.000001   0.000000   0.000000   0.000000
     4  C    0.000000  -0.000007  -0.000001   0.000000   0.000000  -0.000001
     5  C   -0.000007  -0.000521  -0.000004   0.000000   0.000000  -0.000002
     6  C    0.000000   0.000060  -0.000002   0.000000   0.000000   0.000000
     7  C    0.000000   0.000225   0.000015   0.000000   0.000001   0.000029
     8  C   -0.000001  -0.000143  -0.000003   0.000000   0.000000   0.000049
     9  C   -0.000395   0.000002   0.000000   0.000000   0.000000   0.000001
    10  C    0.000045  -0.000029   0.000000   0.000000   0.000000   0.000005
    11  C   -0.000021   0.000129   0.000003   0.000000   0.000006   0.000175
    12  C    0.000037   0.000001   0.000000   0.000000  -0.000001  -0.000098
    13  C   -0.000460   0.000000   0.000000   0.000000  -0.000001  -0.000017
    14  C   -0.000198   0.000000   0.000000   0.000000   0.000000   0.000001
    15  H   -0.000001   0.000003   0.000000   0.000000   0.000000   0.000000
    16  C    0.000000  -0.000006   0.000000   0.000000   0.000001   0.000069
    17  O    0.000000   0.000000   0.000000   0.000000  -0.000001  -0.000069
    18  C    0.000000   0.000031   0.000006   0.000001   0.000006  -0.000344
    19  C    0.000000   0.000056  -0.000040  -0.000001   0.000012   0.000027
    20  C    0.000000  -0.000148  -0.000003  -0.000003   0.000002  -0.000005
    21  C    0.000000  -0.000011  -0.000053   0.000020  -0.000023  -0.000004
    22  C    0.000000  -0.000005  -0.000004   0.000007  -0.000169  -0.000193
    23  C    0.000000   0.000017   0.000009  -0.000002   0.000056   0.000221
    24  C    0.000000   0.000000   0.000000   0.000000   0.000000  -0.000011
    25  C    0.000000  -0.000001   0.000000   0.000000   0.000000  -0.000001
    26  C    0.000000   0.000000   0.000000   0.000000   0.000000   0.000000
    27  C    0.000000   0.000000   0.000000   0.000000   0.000000   0.000000
    28  C    0.000000   0.000000   0.000000   0.000000   0.000000   0.000000
    29  C    0.000000   0.000000   0.000000   0.000000   0.000000   0.000001
    30  H    0.000000   0.000002   0.000000   0.000000   0.000000   0.000000
    31  H    0.000000   0.000000   0.000000   0.000000   0.000000   0.000000
    32  H    0.000000   0.000000   0.000000   0.000000   0.000000   0.000000
    33  H    0.000000   0.000000   0.000000   0.000000   0.000000   0.000000
    34  H    0.000033   0.000000   0.000000   0.000000   0.000000   0.000000
    35  H   -0.000002   0.000000   0.000000   0.000000   0.000001  -0.000049
    36  H    0.000072   0.000000   0.000000   0.000000   0.000000   0.000000
    37  H    0.004796   0.000000   0.000000   0.000000   0.000000   0.000000
    38  H    0.000000  -0.000236   0.000028   0.000000   0.000000   0.000001
    39  H    0.000000   0.000028   0.000184  -0.000001   0.000001   0.000000
    40  H    0.000000   0.000000  -0.000001  -0.000066  -0.000001   0.000000
    41  H    0.000000   0.000000   0.000001  -0.000001   0.000254   0.000036
    42  H    0.000000   0.000001   0.000000   0.000000   0.000036   0.000209
    43  H    0.000000   0.000001   0.000000   0.000000   0.000000   0.000001
    44  H    0.000000   0.000000   0.000000   0.000000   0.000000   0.000000
    45  H    0.000000   0.000000   0.000000   0.000000   0.000000   0.000000
    46  H    0.000000   0.000000   0.000000   0.000000   0.000000   0.000000
    47  H    0.000000   0.000000   0.000000   0.000000   0.000000   0.000002
              43         44         45         46         47
     1  C   -0.000264   0.000000   0.000000   0.000000   0.000000
     2  C    0.000024   0.000000   0.000000   0.000000   0.000000
     3  C    0.000118   0.000000   0.000000   0.000000   0.000000
     4  C    0.000056   0.000000   0.000000   0.000000   0.000001
     5  C    0.001597   0.000006   0.000000   0.000000   0.000000
     6  C   -0.001034   0.000000   0.000000   0.000000   0.000000
     7  C   -0.002406  -0.000001   0.000000   0.000000  -0.000010
     8  C    0.000490   0.000000   0.000000   0.000000   0.000025
     9  C   -0.000223   0.000000   0.000000   0.000000   0.000000
    10  C   -0.000682  -0.000001   0.000000   0.000000   0.000000
    11  C   -0.002341  -0.000002   0.000000   0.000000  -0.000018
    12  C    0.000039   0.000000   0.000000   0.000000   0.000000
    13  C    0.000109   0.000000   0.000000   0.000000   0.000001
    14  C    0.000020   0.000000   0.000000   0.000000   0.000000
    15  H    0.000024   0.000000   0.000000   0.000000   0.000000
    16  C    0.000272   0.000000   0.000000   0.000001   0.000048
    17  O   -0.000005   0.000000   0.000000   0.000000   0.000038
    18  C   -0.000095   0.000000   0.000000   0.000000  -0.000005
    19  C    0.000000   0.000000   0.000000   0.000000   0.000000
    20  C    0.000000   0.000000   0.000000   0.000000   0.000000
    21  C    0.000000   0.000000   0.000000   0.000000   0.000000
    22  C    0.000000   0.000000   0.000000   0.000000   0.000000
    23  C    0.000001   0.000000   0.000000   0.000000   0.000001
    24  C    0.000659  -0.000003  -0.000003   0.000001  -0.000176
    25  C    0.001010  -0.000005  -0.000016   0.000001  -0.000014
    26  C   -0.000889   0.000009   0.000011  -0.000002  -0.000017
    27  C    0.000030   0.000014  -0.000010   0.000005   0.000011
    28  C   -0.000011   0.000000   0.000013   0.000001  -0.000033
    29  C    0.000117   0.000000  -0.000002   0.000003   0.000053
    30  H    0.000000   0.000000   0.000000   0.000000   0.000000
    31  H    0.000000   0.000000   0.000000   0.000000   0.000000
    32  H    0.000000   0.000000   0.000000   0.000000   0.000000
    33  H   -0.000002   0.000000   0.000000   0.000000   0.000000
    34  H    0.000000   0.000000   0.000000   0.000000   0.000000
    35  H   -0.000001   0.000000   0.000000   0.000000   0.000001
    36  H    0.000000   0.000000   0.000000   0.000000   0.000000
    37  H    0.000000   0.000000   0.000000   0.000000   0.000000
    38  H    0.000001   0.000000   0.000000   0.000000   0.000000
    39  H    0.000000   0.000000   0.000000   0.000000   0.000000
    40  H    0.000000   0.000000   0.000000   0.000000   0.000000
    41  H    0.000000   0.000000   0.000000   0.000000   0.000000
    42  H    0.000001   0.000000   0.000000   0.000000   0.000002
    43  H    0.001467   0.000005  -0.000002   0.000000   0.000006
    44  H    0.000005  -0.000061  -0.000001   0.000000   0.000000
    45  H   -0.000002  -0.000001   0.000042   0.000000  -0.000001
    46  H    0.000000   0.000000   0.000000  -0.000027   0.000002
    47  H    0.000006   0.000000  -0.000001   0.000002   0.000183
 Mulliken charges and spin densities:
               1          2
     1  C   -0.013109   0.182569
     2  C    0.009264  -0.105831
     3  C    0.003585   0.198682
     4  C    0.013392  -0.109886
     5  C   -0.033971   0.622355
     6  C    0.033528  -0.159052
     7  C   -0.076729   0.203927
     8  C   -0.242046  -0.032515
     9  C   -0.014084   0.183140
    10  C    0.049380  -0.159831
    11  C   -0.000126   0.204100
    12  C   -0.012492  -0.111129
    13  C    0.001032   0.199634
    14  C    0.006504  -0.106712
    15  H    0.001172  -0.025096
    16  C    0.178999   0.008638
    17  O   -0.228069   0.000338
    18  C    0.083232   0.019996
    19  C   -0.010926   0.000842
    20  C   -0.006168  -0.000047
    21  C   -0.009120   0.000781
    22  C   -0.008987   0.000224
    23  C   -0.003743   0.001272
    24  C   -0.033678   0.001131
    25  C    0.009308   0.000305
    26  C   -0.005855   0.000656
    27  C    0.004580  -0.000233
    28  C   -0.001425   0.000468
    29  C    0.023197  -0.000592
    30  H    0.009190  -0.007422
    31  H    0.023800   0.003846
    32  H    0.023125  -0.008377
    33  H    0.006337   0.003810
    34  H    0.008587  -0.007472
    35  H    0.008822   0.004042
    36  H    0.021724  -0.008394
    37  H    0.022714   0.003900
    38  H    0.004675  -0.000526
    39  H    0.018590   0.000137
    40  H    0.018138  -0.000046
    41  H    0.018604   0.000180
    42  H    0.001668   0.000031
    43  H    0.009202  -0.001911
    44  H    0.024641  -0.000040
    45  H    0.028870   0.000031
    46  H    0.027243  -0.000016
    47  H    0.007427   0.000096
 Sum of Mulliken charges =   0.00000   1.00000
 Mulliken charges and spin densities with hydrogens summed into heavy atoms:
               1          2
     1  C   -0.003919   0.175147
     2  C    0.033063  -0.101986
     3  C    0.026710   0.190305
     4  C    0.019729  -0.106077
     5  C   -0.032799   0.597259
     6  C    0.033528  -0.159052
     7  C   -0.076729   0.203927
     8  C   -0.242046  -0.032515
     9  C   -0.005498   0.175669
    10  C    0.049380  -0.159831
    11  C   -0.000126   0.204100
    12  C   -0.003670  -0.107086
    13  C    0.022756   0.191240
    14  C    0.029217  -0.102813
    16  C    0.178999   0.008638
    17  O   -0.228069   0.000338
    18  C    0.083232   0.019996
    19  C   -0.006251   0.000317
    20  C    0.012423   0.000090
    21  C    0.009019   0.000734
    22  C    0.009617   0.000404
    23  C   -0.002076   0.001303
    24  C   -0.033678   0.001131
    25  C    0.018510  -0.001607
    26  C    0.018786   0.000615
    27  C    0.033450  -0.000203
    28  C    0.025817   0.000452
    29  C    0.030625  -0.000496
 Electronic spatial extent (au):  <R**2>=           8328.5442
 Charge=              0.0000 electrons
 Dipole moment (field-independent basis, Debye):
    X=              1.9607    Y=              0.6257    Z=              3.2293  Tot=              3.8294
 Quadrupole moment (field-independent basis, Debye-Ang):
   XX=           -146.1868   YY=           -143.0015   ZZ=           -153.4948
   XY=             -3.4408   XZ=             -1.0253   YZ=              4.4311
 Traceless Quadrupole moment (field-independent basis, Debye-Ang):
   XX=              1.3743   YY=              4.5595   ZZ=             -5.9338
   XY=             -3.4408   XZ=             -1.0253   YZ=              4.4311
 Octapole moment (field-independent basis, Debye-Ang**2):
  XXX=             47.0653  YYY=             17.4404  ZZZ=             57.0223  XYY=             -9.9314
  XXY=            -12.1816  XXZ=            -31.7957  XZZ=             15.5378  YZZ=             -3.8228
  YYZ=              3.2386  XYZ=             -5.1566
 Hexadecapole moment (field-independent basis, Debye-Ang**3):
 XXXX=          -4605.8422 YYYY=          -3008.4511 ZZZZ=          -2551.4202 XXXY=              0.1225
 XXXZ=              1.9342 YYYX=            -40.7890 YYYZ=             -2.5320 ZZZX=            -61.0082
 ZZZY=             -4.3002 XXYY=          -1525.4600 XXZZ=          -1324.4460 YYZZ=           -897.1196
 XXYZ=            111.9711 YYXZ=             33.9112 ZZXY=            -19.6582
 N-N= 2.482063118336D+03 E-N=-7.553501255692D+03  KE= 1.107726262895D+03
 1|1|UNPC-CHSHR-P01|SP|UwB97XD TD-FC|CC-pVDZ|C27H19O1(2)|IBS|19-May-202
 4|0||# td=(nstates=60) wb97xd/cc-pvdz scrf=(cpcm,solvent=n,n-DiMethylF
 ormamide) geom=AllCheck guess=read maxdisk=900GB||mono_pin_rear2||0,2|
 C,0,2.202770501,1.0378428745,0.5595229021|C,0,3.2658569187,0.300527566
 1,1.0543431635|C,0,3.1465547898,-1.0873921991,1.1902205521|C,0,1.96168
 38821,-1.7224182497,0.8183607534|C,0,-0.1129301147,1.1773249291,-0.287
 8457703|C,0,0.9882382559,0.4112050112,0.1915619168|C,0,0.879475983,-0.
 9966862639,0.3225136484|C,0,-0.3722075201,-1.7295976164,-0.172716384|C
 ,0,-2.5177574525,1.4063722524,-0.794976835|C,0,-1.3951444546,0.5952086
 05,-0.5003127634|C,0,-1.5798404815,-0.8031333031,-0.352717141|C,0,-2.8
 675698677,-1.3301428419,-0.4456483385|C,0,-3.966503522,-0.5153986422,-
 0.7148299348|C,0,-3.7851725067,0.8596979109,-0.9049221475|H,0,0.007478
 5363,2.2553902156,-0.4124077297|C,0,-0.6835501985,-2.8190129495,0.8926
 499389|O,0,-0.4651740263,-3.9925032651,0.6667681488|C,0,-0.086952882,-
 2.3507615977,-1.5626231372|C,0,0.9419736902,-1.8527459714,-2.368876970
 3|C,0,1.1472609001,-2.341105716,-3.6608751229|C,0,0.3274991615,-3.3423
 528745,-4.1724564044|C,0,-0.7032187345,-3.8476205354,-3.3782795148|C,0
 ,-0.9096601716,-3.3556311397,-2.0926287458|C,0,-1.2262565386,-2.410561
 3419,2.2346146216|C,0,-1.2313017791,-1.0940123925,2.7154392804|C,0,-1.
 7356050517,-0.8113666879,3.9821777942|C,0,-2.2502161377,-1.8348873386,
 4.7785048172|C,0,-2.2513276289,-3.1484469204,4.3072471009|C,0,-1.73592
 74481,-3.4331402469,3.0466996861|H,0,2.2875217689,2.1211623129,0.45054
 89075|H,0,4.1938354124,0.8008309471,1.3359947791|H,0,3.9793788405,-1.6
 761581542,1.576966665|H,0,1.8907898237,-2.8087819308,0.9008960648|H,0,
 -2.3682019458,2.4811147857,-0.9190568559|H,0,-3.0319976958,-2.40025294
 57,-0.3034588852|H,0,-4.9628443303,-0.9544469417,-0.7816295995|H,0,-4.
 6404536451,1.4997284271,-1.1273692364|H,0,1.6025958018,-1.0709591617,-
 1.9944178762|H,0,1.9578053353,-1.9302112477,-4.265630574|H,0,0.4877531
 383,-3.7271059207,-5.1812149159|H,0,-1.356802814,-4.6329861842,-3.7625
 39527|H,0,-1.7214405147,-3.7735274593,-1.4997515279|H,0,-0.832462575,-
 0.2775449653,2.1159295897|H,0,-1.7257110641,0.2159861813,4.349241035|H
 ,0,-2.6496882492,-1.6079801627,5.7685438074|H,0,-2.6529459983,-3.95253
 05805,4.9258667168|H,0,-1.7244073905,-4.4553882706,2.667674048||Versio
 n=EM64W-G09RevD.01|State=2-A|HF=-1115.2431217|S2=0.807599|S2-1=0.|S2A=
 0.752954|RMSD=4.214e-009|PG=C01 [X(C27H19O1)]||@


 LET US LEARN TO DREAM, GENTLEMEN, THEN PERHAPS WE SHALL
 DISCOVER THE TRUTH;  BUT LET US BEWARE OF PUBLISHING
 OUR DREAMS ABROAD BEFORE THEY HAVE BEEN SCRUTINIZED
 BY OUR VIGILANT INTELLECT ... LET US ALWAYS ALLOW
 THE FRUIT TO HANG UNTIL IT IS RIPE.  UNRIPE FRUIT
 BRINGS EVEN THE GROWER BUT LITTLE PROFIT; IT DAMAGES
 THE HEALTH OF THOSE WHO CONSUME IT; IT ENDANGERS
 PARTICULARLY THE YOUTH WHO CANNOT YET DISTINGUISH
 BETWEEN RIPE AND UNRIPE FRUIT.

                                  -- KEKULE, 1890
 Job cpu time:       0 days  2 hours 49 minutes 57.0 seconds.
 File lengths (MBytes):  RWF=   4148 Int=      0 D2E=      0 Chk=    547 Scr=      1
 Normal termination of Gaussian 09 at Sun May 19 03:30:20 2024.
