 Entering Link 1 = C:\G09W\l1.exe PID=     13280.
  
 Copyright (c) 1988,1990,1992,1993,1995,1998,2003,2009,2013,
            Gaussian, Inc.  All Rights Reserved.
  
 This is part of the Gaussian(R) 09 program.  It is based on
 the Gaussian(R) 03 system (copyright 2003, Gaussian, Inc.),
 the Gaussian(R) 98 system (copyright 1998, Gaussian, Inc.),
 the Gaussian(R) 94 system (copyright 1995, Gaussian, Inc.),
 the Gaussian 92(TM) system (copyright 1992, Gaussian, Inc.),
 the Gaussian 90(TM) system (copyright 1990, Gaussian, Inc.),
 the Gaussian 88(TM) system (copyright 1988, Gaussian, Inc.),
 the Gaussian 86(TM) system (copyright 1986, Carnegie Mellon
 University), and the Gaussian 82(TM) system (copyright 1983,
 Carnegie Mellon University). Gaussian is a federally registered
 trademark of Gaussian, Inc.
  
 This software contains proprietary and confidential information,
 including trade secrets, belonging to Gaussian, Inc.
  
 This software is provided under written license and may be
 used, copied, transmitted, or stored only in accord with that
 written license.
  
 The following legend is applicable only to US Government
 contracts under FAR:
  
                    RESTRICTED RIGHTS LEGEND
  
 Use, reproduction and disclosure by the US Government is
 subject to restrictions as set forth in subparagraphs (a)
 and (c) of the Commercial Computer Software - Restricted
 Rights clause in FAR 52.227-19.
  
 Gaussian, Inc.
 340 Quinnipiac St., Bldg. 40, Wallingford CT 06492
  
  
 ---------------------------------------------------------------
 Warning -- This program may not be used in any manner that
 competes with the business of Gaussian, Inc. or will provide
 assistance to any competitor of Gaussian, Inc.  The licensee
 of this program is prohibited from giving any competitor of
 Gaussian, Inc. access to this program.  By using this program,
 the user acknowledges that Gaussian, Inc. is engaged in the
 business of creating and licensing software in the field of
 computational chemistry and represents and warrants to the
 licensee that it is not a competitor of Gaussian, Inc. and that
 it will not use this program in any manner prohibited above.
 ---------------------------------------------------------------
  

 Cite this work as:
 Gaussian 09, Revision D.01,
 M. J. Frisch, G. W. Trucks, H. B. Schlegel, G. E. Scuseria, 
 M. A. Robb, J. R. Cheeseman, G. Scalmani, V. Barone, B. Mennucci, 
 G. A. Petersson, H. Nakatsuji, M. Caricato, X. Li, H. P. Hratchian, 
 A. F. Izmaylov, J. Bloino, G. Zheng, J. L. Sonnenberg, M. Hada, 
 M. Ehara, K. Toyota, R. Fukuda, J. Hasegawa, M. Ishida, T. Nakajima, 
 Y. Honda, O. Kitao, H. Nakai, T. Vreven, J. A. Montgomery, Jr., 
 J. E. Peralta, F. Ogliaro, M. Bearpark, J. J. Heyd, E. Brothers, 
 K. N. Kudin, V. N. Staroverov, T. Keith, R. Kobayashi, J. Normand, 
 K. Raghavachari, A. Rendell, J. C. Burant, S. S. Iyengar, J. Tomasi, 
 M. Cossi, N. Rega, J. M. Millam, M. Klene, J. E. Knox, J. B. Cross, 
 V. Bakken, C. Adamo, J. Jaramillo, R. Gomperts, R. E. Stratmann, 
 O. Yazyev, A. J. Austin, R. Cammi, C. Pomelli, J. W. Ochterski, 
 R. L. Martin, K. Morokuma, V. G. Zakrzewski, G. A. Voth, 
 P. Salvador, J. J. Dannenberg, S. Dapprich, A. D. Daniels, 
 O. Farkas, J. B. Foresman, J. V. Ortiz, J. Cioslowski, 
 and D. J. Fox, Gaussian, Inc., Wallingford CT, 2013.
 
 ******************************************
 Gaussian 09:  EM64W-G09RevD.01 13-Apr-2013
                10-Jun-2024 
 ******************************************
 %nprocshared=15
 Will use up to   15 processors via shared memory.
 %mem=50GB
 %chk=D:\Yaroslav\pink-mystery\monomer_OHradcat\opt-wb\monomer_OHradcat.chk
 ----------------------------------------------------------------------
 # td=(nstates=60) wb97xd/cc-pvdz scrf=(cpcm,solvent=n,n-DiMethylFormam
 ide) geom=AllCheck guess=read maxdisk=900GB integral(ultrafinegrid)
 ----------------------------------------------------------------------
 1/29=7,38=1/1;
 2/12=2,40=1/2;
 3/5=16,11=9,14=-4,16=1,25=1,30=1,70=2101,72=148,74=-58,75=-5,116=-2/1,2,8,3;
 4/5=1/1;
 5/5=2,38=6,53=148/2;
 8/6=1,10=1,108=60/1;
 9/41=60,42=1,70=2/14;
 6/7=2,8=2,9=2,10=2/1;
 99/5=1,9=1/99;
 Structure from the checkpoint file:  "D:\Yaroslav\pink-mystery\monomer_OHradcat\opt-wb\monomer_OHradcat.chk"
 ----------------
 monomer_OHradcat
 ----------------
 Charge =  1 Multiplicity = 2
 Redundant internal coordinates found in file.
 O,0,0.9495635126,-0.2307277211,-0.2740301682
 C,0,2.3532741613,-0.0705179728,-0.1631506547
 C,0,3.5366564731,-3.8883360191,-3.174981112
 C,0,2.7548049212,-4.7341244161,-2.4104329748
 C,0,1.9626883111,-4.1990275985,-1.3843802077
 C,0,1.9751948734,-2.8415439265,-1.10012838
 C,0,4.3031509186,-1.6444455311,-3.7397045806
 C,0,3.5411952568,-2.4964607607,-2.9260770734
 C,0,2.7730672833,-1.9447512326,-1.8489693931
 C,0,2.8614677222,-0.5379898001,-1.5574746469
 C,0,4.9024149915,0.5731420675,-4.5292964351
 C,0,4.2361646294,-0.2506526101,-3.5949572402
 C,0,3.4521711611,0.3268026615,-2.5346582783
 C,0,3.279236718,1.7325529974,-2.5683898758
 C,0,3.906841371,2.5157712475,-3.5275977293
 C,0,4.7497252834,1.9481668841,-4.4908293241
 C,0,2.7114964594,1.3722649457,0.2429391976
 C,0,4.0427392422,1.744101968,0.4686344129
 C,0,4.36120546,3.0500401881,0.8253305625
 C,0,3.351938919,4.001701545,0.9858570644
 C,0,2.024587133,3.6323837163,0.786269179
 C,0,1.7055644933,2.3247250457,0.4137816008
 C,0,2.9656414435,-0.9572424952,0.9492271231
 C,0,2.2725829312,-1.1102336159,2.1531020566
 C,0,2.8188018377,-1.8486303266,3.2011079087
 C,0,4.0785772188,-2.43032821,3.0680371138
 C,0,4.7871751084,-2.2632563863,1.8796742215
 C,0,4.2341641913,-1.5338277504,0.8288669529
 H,0,0.5469912699,-0.1166774051,0.5966023847
 H,0,4.1518067721,-4.2809051846,-3.9857088253
 H,0,2.7460648808,-5.8057735516,-2.6087051906
 H,0,1.3246193134,-4.8570752795,-0.7939629864
 H,0,1.3331472225,-2.4608715432,-0.3122611232
 H,0,4.9149504078,-2.0700703275,-4.5376666327
 H,0,5.5197471215,0.1052446817,-5.2971940329
 H,0,2.6139328085,2.2213225262,-1.8663291669
 H,0,3.7352132259,3.5924337,-3.5223398514
 H,0,5.2577741862,2.5797127376,-5.2194435479
 H,0,4.845418964,1.0150858757,0.3490832219
 H,0,5.4053351392,3.3260427326,0.9807746867
 H,0,3.6015981186,5.025925674,1.2672291277
 H,0,1.2262481902,4.3657492561,0.9109360568
 H,0,0.665502844,2.0618661905,0.2230791624
 H,0,1.2936066169,-0.6500716888,2.3043625074
 H,0,2.2544652491,-1.9636076376,4.1277728652
 H,0,4.5070414344,-3.0084601245,3.8881292749
 H,0,5.7758986515,-2.709280213,1.7616722705
 H,0,4.8053455572,-1.4293473127,-0.0955995207
 Recover connectivity data from disk.
                          Input orientation:                          
 ---------------------------------------------------------------------
 Center     Atomic      Atomic             Coordinates (Angstroms)
 Number     Number       Type             X           Y           Z
 ---------------------------------------------------------------------
      1          8           0        0.949564   -0.230728   -0.274030
      2          6           0        2.353274   -0.070518   -0.163151
      3          6           0        3.536656   -3.888336   -3.174981
      4          6           0        2.754805   -4.734124   -2.410433
      5          6           0        1.962688   -4.199028   -1.384380
      6          6           0        1.975195   -2.841544   -1.100128
      7          6           0        4.303151   -1.644446   -3.739705
      8          6           0        3.541195   -2.496461   -2.926077
      9          6           0        2.773067   -1.944751   -1.848969
     10          6           0        2.861468   -0.537990   -1.557475
     11          6           0        4.902415    0.573142   -4.529296
     12          6           0        4.236165   -0.250653   -3.594957
     13          6           0        3.452171    0.326803   -2.534658
     14          6           0        3.279237    1.732553   -2.568390
     15          6           0        3.906841    2.515771   -3.527598
     16          6           0        4.749725    1.948167   -4.490829
     17          6           0        2.711496    1.372265    0.242939
     18          6           0        4.042739    1.744102    0.468634
     19          6           0        4.361205    3.050040    0.825331
     20          6           0        3.351939    4.001702    0.985857
     21          6           0        2.024587    3.632384    0.786269
     22          6           0        1.705564    2.324725    0.413782
     23          6           0        2.965641   -0.957242    0.949227
     24          6           0        2.272583   -1.110234    2.153102
     25          6           0        2.818802   -1.848630    3.201108
     26          6           0        4.078577   -2.430328    3.068037
     27          6           0        4.787175   -2.263256    1.879674
     28          6           0        4.234164   -1.533828    0.828867
     29          1           0        0.546991   -0.116677    0.596602
     30          1           0        4.151807   -4.280905   -3.985709
     31          1           0        2.746065   -5.805774   -2.608705
     32          1           0        1.324619   -4.857075   -0.793963
     33          1           0        1.333147   -2.460872   -0.312261
     34          1           0        4.914950   -2.070070   -4.537667
     35          1           0        5.519747    0.105245   -5.297194
     36          1           0        2.613933    2.221323   -1.866329
     37          1           0        3.735213    3.592434   -3.522340
     38          1           0        5.257774    2.579713   -5.219444
     39          1           0        4.845419    1.015086    0.349083
     40          1           0        5.405335    3.326043    0.980775
     41          1           0        3.601598    5.025926    1.267229
     42          1           0        1.226248    4.365749    0.910936
     43          1           0        0.665503    2.061866    0.223079
     44          1           0        1.293607   -0.650072    2.304363
     45          1           0        2.254465   -1.963608    4.127773
     46          1           0        4.507041   -3.008460    3.888129
     47          1           0        5.775899   -2.709280    1.761672
     48          1           0        4.805346   -1.429347   -0.095600
 ---------------------------------------------------------------------
                    Distance matrix (angstroms):
                    1          2          3          4          5
     1  O    0.000000
     2  C    1.417168   0.000000
     3  C    5.337290   5.004723   0.000000
     4  C    5.301292   5.192372   1.382456   0.000000
     5  C    4.243431   4.323026   2.404196   1.402341   0.000000
     6  C    2.924161   2.949484   2.799812   2.430340   1.386981
     7  C    5.025539   4.367036   2.437513   3.702763   4.189416
     8  C    4.345510   3.863951   1.413963   2.427228   2.786978
     9  C    2.956937   2.555575   2.473641   2.845378   2.440147
    10  C    2.323148   1.555934   3.781141   4.283277   3.773720
    11  C    5.863321   5.096631   4.858421   6.104825   6.426982
    12  C    4.672334   3.918548   3.728060   4.868166   5.064090
    13  C    3.418234   2.643764   4.264334   5.110258   4.901514
    14  C    3.813913   3.145417   5.659383   6.489830   6.190220
    15  C    5.184057   4.519067   6.424482   7.425378   7.311746
    16  C    6.080313   5.342927   6.104732   7.277415   7.430047
    17  C    2.437468   1.541056   6.327479   6.658097   5.852195
    18  C    3.744227   2.558572   6.727289   7.205222   6.563617
    19  C    4.859149   3.840152   8.051300   8.581603   7.948880
    20  C    5.027144   4.347473   8.921849   9.391805   8.648699
    21  C    4.147715   3.836784   8.633602   8.986133   8.126903
    22  C    2.752265   2.547463   7.405015   7.674923   6.771916
    23  C    2.467540   1.548760   5.091803   5.059309   4.118350
    24  C    2.900842   2.540186   6.140375   5.847305   4.706428
    25  C    4.264768   3.833619   6.732773   6.310274   5.223409
    26  C    5.079211   4.357287   6.433875   6.088800   5.237299
    27  C    4.847358   3.860714   5.454743   5.351704   4.730643
    28  C    3.701764   2.581302   4.696917   4.787846   4.142627
    29  H    0.965957   1.960105   6.114601   5.936120   4.753322
    30  H    6.358841   5.964397   1.090779   2.153721   3.400861
    31  H    6.305494   6.247254   2.149947   1.089872   2.166629
    32  H    4.670556   4.936313   3.391285   2.161833   1.090299
    33  H    2.263214   2.603206   3.884363   3.404573   2.137042
    34  H    6.106232   5.449476   2.657573   4.035906   4.815758
    35  H    6.799385   6.034554   4.938130   6.276766   6.818324
    36  H    3.364237   2.867280   6.316005   6.978118   6.471266
    37  H    5.738286   5.158597   7.491462   8.457488   8.271613
    38  H    7.135571   6.405150   6.998409   8.224817   8.456750
    39  H    4.137392   2.766172   6.178627   6.711111   6.204999
    40  H    5.837727   4.707469   8.532850   9.137390   8.606536
    41  H    6.086146   5.438569   9.959996  10.464265   9.737393
    42  H    4.754819   4.701523   9.495400   9.806920   8.897540
    43  H    2.363006   2.746781   7.429350   7.581956   6.592830
    44  H    2.634829   2.747253   6.748395   6.406550   5.162323
    45  H    4.907292   4.691010   7.660209   7.118584   5.955339
    46  H    6.139627   5.448219   7.183548   6.761667   5.974156
    47  H    5.794896   4.731001   5.547515   5.534751   5.163097
    48  H    4.041730   2.804217   4.139902   4.526005   4.172863
                    6          7          8          9         10
     6  C    0.000000
     7  C    3.717497   0.000000
     8  C    2.430129   1.403031   0.000000
     9  C    1.414779   2.450759   1.433375   0.000000
    10  C    2.510181   2.839863   2.484092   1.439362   0.000000
    11  C    5.655784   2.429047   3.720980   4.249478   3.772506
    12  C    4.248397   1.402889   2.444184   2.838855   2.474609
    13  C    3.778592   2.462138   2.851657   2.468058   1.432370
    14  C    4.977819   3.718131   4.252190   3.781050   2.520287
    15  C    6.190694   4.184430   5.061422   4.898928   3.781487
    16  C    6.491240   3.697361   4.864536   5.103079   4.283814
    17  C    4.483543   5.243602   5.069330   3.922049   2.629269
    18  C    5.269146   5.409268   5.455088   4.537730   3.272379
    19  C    6.641626   6.548367   6.746047   5.884047   4.560804
    20  C    7.285380   7.423928   7.587171   6.612990   5.226652
    21  C    6.743343   7.315820   7.324230   6.213625   4.856493
    22  C    5.390265   6.305015   6.145570   4.948538   3.662936
    23  C    2.954900   4.924151   4.209327   2.973577   2.543655
    24  C    3.697213   6.255698   5.415631   4.118675   3.800346
    25  C    4.494239   7.100694   6.203542   5.051199   4.935961
    26  C    4.686888   6.856631   6.018518   5.110489   5.143701
    27  C    4.137738   5.674031   4.970120   4.249807   4.301033
    28  C    3.245626   4.570431   3.937826   3.078063   2.927561
    29  H    3.513340   5.936865   5.199798   3.778636   3.189726
    30  H    3.890498   2.652234   2.163309   3.453143   4.644428
    31  H    3.414191   4.584793   3.418261   3.935152   5.372890
    32  H    2.139942   5.279208   3.877063   3.419455   4.647510
    33  H    1.085298   4.608128   3.421809   2.168230   2.753869
    34  H    4.588464   1.091878   2.160147   3.439834   3.930090
    35  H    6.234001   2.639564   4.038036   4.861788   4.633109
    36  H    5.160200   4.615967   4.923450   4.169148   2.787556
    37  H    7.096537   5.272068   6.121095   5.863984   4.656665
    38  H    7.558711   4.576510   5.828697   6.164790   5.373302
    39  H    5.021155   4.907683   4.975805   4.229269   3.159600
    40  H    7.357659   6.942873   7.255347   6.535867   5.276810
    41  H    8.375360   8.369911   8.612419   7.680332   6.283622
    42  H    7.519998   8.198672   8.195827   7.059189   5.728320
    43  H    5.244960   6.532449   6.242206   4.978775   3.840818
    44  H    4.105809   6.824726   5.984840   4.595124   4.169477
    45  H    5.308457   8.136103   7.190021   5.999229   5.892612
    46  H    5.596501   7.751513   6.901334   6.087072   6.202075
    47  H    4.759490   5.793790   5.197517   4.757965   4.921905
    48  H    3.318604   3.684829   3.278477   2.733149   2.590417
                   11         12         13         14         15
    11  C    0.000000
    12  C    1.412628   0.000000
    13  C    2.478401   1.439560   0.000000
    14  C    2.797159   2.429538   1.416749   0.000000
    15  C    2.401744   2.786771   2.446270   1.388308   0.000000
    16  C    1.384011   2.429226   2.852906   2.429938   1.400158
    17  C    5.311587   4.437108   3.058862   2.890624   4.117451
    18  C    5.204758   4.530920   3.373022   3.131547   4.072323
    19  C    5.924522   5.518075   4.419490   3.797864   4.409067
    20  C    6.676520   6.312545   5.090084   4.217463   4.784055
    21  C    6.774665   6.258130   4.898308   4.054287   4.837267
    22  C    6.141817   5.395043   3.966816   3.423516   4.518472
    23  C    6.008942   4.771070   3.744722   4.439253   5.743661
    24  C    7.375922   6.134714   5.042975   5.602435   6.934628
    25  C    8.364543   7.123830   6.167064   6.806172   8.093659
    26  C    8.210909   7.012226   6.275695   7.052506   8.245956
    27  C    7.009518   5.858820   5.289326   6.166494   7.269985
    28  C    5.796188   4.606166   3.922596   4.808584   5.956944
    29  H    6.761687   5.585438   4.294361   4.571870   5.935268
    30  H    4.941728   4.050029   4.881189   6.239539   6.816501
    31  H    7.002077   5.835448   6.173537   7.557266   8.452211
    32  H    7.499373   6.127136   5.867630   7.098755   8.276442
    33  H    6.303039   4.908021   4.147341   5.144141   6.459819
    34  H    2.643255   2.158641   3.449169   4.584054   4.802756
    35  H    1.090731   2.161448   3.457682   3.887723   3.397584
    36  H    3.878794   3.424975   2.176813   1.083704   2.125588
    37  H    3.390051   3.876279   3.423445   2.139414   1.090269
    38  H    2.151490   3.419592   3.942573   3.414729   2.165976
    39  H    4.898689   4.186734   3.275796   3.388117   4.261648
    40  H    6.179990   5.924275   5.016828   4.433517   4.819486
    41  H    7.424225   7.203181   6.046357   5.065787   5.420739
    42  H    7.582493   7.118556   5.756730   4.822260   5.505323
    43  H    6.538562   5.716185   4.287316   3.838275   4.977940
    44  H    7.824234   6.604556   5.387932   5.776101   7.131852
    45  H    9.401680   8.154870   7.146221   7.716888   9.022188
    46  H    9.156268   7.979690   7.313613   8.103786   9.266627
    47  H    7.149375   6.091725   5.751171   6.686751   7.666219
    48  H    4.865907   3.736147   3.296081   4.294335   5.305646
                   16         17         18         19         20
    16  C    0.000000
    17  C    5.186001   0.000000
    18  C    5.013756   1.400503   0.000000
    19  C    5.443035   2.423974   1.390729   0.000000
    20  C    6.013726   2.806427   2.416915   1.396441   0.000000
    21  C    6.173389   2.423879   2.781984   2.408409   1.392154
    22  C    5.784801   1.395803   2.408842   2.783502   2.418692
    23  C    6.420169   2.447455   2.947604   4.245146   4.974102
    24  C    7.722168   3.162936   3.757408   4.840785   5.353443
    25  C    8.792612   4.374522   4.676768   5.658648   6.278372
    26  C    8.761171   4.930497   4.917728   5.928242   6.799594
    27  C    7.636806   4.494926   4.313252   5.433619   6.489107
    28  C    6.378813   3.332747   3.303216   4.585629   5.607589
    29  H    6.914370   2.650870   3.962213   4.962726   4.998029
    30  H    6.278056   7.205157   7.493583   8.771129   9.693185
    31  H    8.226824   7.723814   8.255423   9.634662  10.463008
    32  H    8.468146   6.465545   7.249681   8.623540   9.260438
    33  H    6.969437   4.111086   5.062953   6.390102   6.893873
    34  H    4.021905   6.289600   6.353874   7.435315   8.355760
    35  H    2.153954   6.339139   6.173507   6.891977   7.704447
    36  H    3.394735   2.275836   2.778720   3.314328   3.442291
    37  H    2.161208   4.489373   4.408943   4.425867   4.542933
    38  H    1.089882   6.146469   5.876120   6.128975   6.645300
    39  H    4.929965   2.166211   1.090895   2.145300   3.399388
    40  H    5.680389   3.408580   2.149766   1.091122   2.161707
    41  H    6.629180   3.897523   3.406277   2.162499   1.091116
    42  H    6.887573   3.407804   3.873150   3.400937   2.157940
    43  H    6.238167   2.159174   3.401029   3.872649   3.400254
    44  H    8.054206   3.217099   4.081629   5.028770   5.254920
    45  H    9.788187   5.140900   5.507661   6.362479   6.830886
    46  H    9.738275   5.975127   5.873276   6.790245   7.674621
    47  H    7.863754   5.325047   4.950596   6.003987   7.177377
    48  H    5.543351   3.513950   3.312206   4.594593   5.725228
                   21         22         23         24         25
    21  C    0.000000
    22  C    1.396601   0.000000
    23  C    4.687943   3.556094   0.000000
    24  C    4.941877   3.891746   1.397516   0.000000
    25  C    6.041832   5.140562   2.426335   1.393521   0.000000
    26  C    6.795720   5.940269   2.810332   2.416893   1.393956
    27  C    6.601969   5.717931   2.426806   2.779820   2.406781
    28  C    5.619056   4.631905   1.398602   2.404336   2.780266
    29  H    4.034194   2.708535   2.584717   2.527353   3.865777
    30  H    9.482456   8.305057   6.066903   7.160282   7.703454
    31  H   10.056102   8.736308   6.017919   6.704259   7.029808
    32  H    8.663602   7.292601   4.576064   4.860314   5.219570
    33  H    6.229977   4.854664   2.552898   2.963913   3.863389
    34  H    8.319644   7.357392   5.928254   7.257395   8.020692
    35  H    7.852731   7.217293   6.831553   8.217565   9.128739
    36  H    3.061813   2.456569   4.260790   5.231789   6.502723
    37  H    4.635941   4.606475   6.425473   7.514320   8.697686
    38  H    6.901464   6.664566   7.471039   8.768210   9.821634
    39  H    3.872786   3.402650   2.789949   3.793541   4.521293
    40  H    3.400167   3.874587   4.929466   5.555991   6.196554
    41  H    2.158760   3.408783   6.025269   6.340623   7.184162
    42  H    1.091197   2.154689   5.600107   5.711758   6.811727
    43  H    2.151934   1.089583   3.864317   4.045975   5.366315
    44  H    4.601996   3.548721   2.174039   1.092256   2.137034
    45  H    6.521780   5.699546   3.409061   2.151256   1.091056
    46  H    7.738535   6.954296   3.901353   3.406815   2.160407
    47  H    7.432392   6.612536   3.409875   3.870838   3.399576
    48  H    5.842211   4.895015   2.167731   3.401967   3.871748
                   26         27         28         29         30
    26  C    0.000000
    27  C    1.393639   0.000000
    28  C    2.416982   1.393586   0.000000
    29  H    4.892144   4.922726   3.956957   0.000000
    30  H    7.292827   6.235168   5.543767   7.164710   0.000000
    31  H    6.737553   6.071335   5.681625   6.890264   2.489472
    32  H    5.328079   5.085816   4.705635   5.000975   4.302581
    33  H    4.354852   4.095600   3.252304   2.634259   4.975096
    34  H    7.660028   6.421519   5.436056   7.018228   2.403089
    35  H    8.859074   7.593016   6.470541   7.714557   4.778029
    36  H    6.937652   6.234338   4.897998   3.975490   7.009693
    37  H    8.934463   8.036012   6.742441   6.394369   7.897957
    38  H    9.755683   8.606584   7.385868   7.955400   7.057857
    39  H    4.455517   3.618512   2.664730   4.451812   6.878884
    40  H    6.265202   5.694770   5.001306   5.966860   9.170766
    41  H    7.685450   7.410321   6.604746   6.018864  10.701083
    42  H    7.679553   7.586987   6.622636   4.544485  10.358603
    43  H    6.318439   6.199933   5.102091   2.213508   8.372512
    44  H    3.392429   3.871401   3.406610   1.938656   7.804951
    45  H    2.160614   3.399758   3.871266   4.335410   8.648604
    46  H    1.091040   2.160485   3.407065   5.905807   7.983898
    47  H    2.159931   1.091071   2.151455   5.951508   6.175765
    48  H    3.396874   2.144164   1.091697   4.509526   4.867386
                   31         32         33         34         35
    31  H    0.000000
    32  H    2.492755   0.000000
    33  H    4.296319   2.444157   0.000000
    34  H    4.730796   5.888395   5.553025   0.000000
    35  H    7.061262   7.905872   6.997294   2.382154   0.000000
    36  H    8.062435   7.274339   5.096909   5.553988   4.969142
    37  H    9.494179   9.200500   7.260649   5.872531   4.300599
    38  H    9.134606   9.505809   8.055472   4.711988   2.489511
    39  H    7.725278   6.941532   4.985550   5.779563   5.758730
    40  H   10.165931   9.314792   7.193263   7.733803   7.056878
    41  H   11.536053  10.349244   7.980776   9.261472   8.425203
    42  H   10.870032   9.379598   6.936165   9.203997   8.667578
    43  H    8.616699   7.024284   4.602988   7.602329   7.606936
    44  H    7.268365   5.224889   3.182339   7.870444   8.730088
    45  H    7.770717   5.784484   4.561798   9.065283  10.186865
    46  H    7.289366   5.955433   5.293084   8.487697   9.751456
    47  H    6.153728   5.564008   4.909272   6.389952   7.603602
    48  H    5.450637   4.934824   3.628656   4.489376   5.470094
                   36         37         38         39         40
    36  H    0.000000
    37  H    2.424786   0.000000
    38  H    4.285057   2.494786   0.000000
    39  H    3.367876   4.781547   5.798843   0.000000
    40  H    4.137431   4.810230   6.246718   2.460297   0.000000
    41  H    4.319777   5.001272   7.127678   4.298479   2.495020
    42  H    3.773253   5.152364   7.551469   4.963972   4.307045
    43  H    2.861369   5.078772   7.139900   4.310838   4.963694
    44  H    5.232861   7.609912   9.096911   4.383063   5.870918
    45  H    7.319298   9.570080  10.818137   5.464810   6.914621
    46  H    8.003017   9.954023  10.711637   5.369196   7.027487
    47  H    6.889939   8.473298   8.773704   4.090489   6.096904
    48  H    4.611417   6.173007   6.521582   2.484875   4.912464
                   41         42         43         44         45
    41  H    0.000000
    42  H    2.490997   0.000000
    43  H    4.300762   2.468898   0.000000
    44  H    6.214452   5.206211   3.475753   0.000000
    45  H    7.671444   7.173983   5.828883   2.444065   0.000000
    46  H    8.499429   8.602688   7.341541   4.289111   2.494643
    47  H    8.050184   8.454532   7.158719   4.962438   4.307546
    48  H    6.706479   6.885216   5.424797   4.324280   4.962791
                   46         47         48
    46  H    0.000000
    47  H    2.494259   0.000000
    48  H    4.295658   2.455537   0.000000
 Stoichiometry    C27H20O(1+,2)
 Framework group  C1[X(C27H20O)]
 Deg. of freedom   138
 Full point group                 C1      NOp   1
 Largest Abelian subgroup         C1      NOp   1
 Largest concise Abelian subgroup C1      NOp   1
                         Standard orientation:                         
 ---------------------------------------------------------------------
 Center     Atomic      Atomic             Coordinates (Angstroms)
 Number     Number       Type             X           Y           Z
 ---------------------------------------------------------------------
      1          8           0       -0.252169   -0.919385   -2.146370
      2          6           0       -0.438631   -0.715851   -0.756344
      3          6           0        4.063976    1.308383    0.066005
      4          6           0        4.665135    0.209200   -0.518451
      5          6           0        3.867119   -0.762323   -1.139639
      6          6           0        2.484079   -0.658213   -1.148645
      7          6           0        2.064241    2.597155    0.596665
      8          6           0        2.657726    1.453716    0.040948
      9          6           0        1.829541    0.443069   -0.548347
     10          6           0        0.397056    0.568075   -0.484147
     11          6           0        0.152437    4.059415    0.923870
     12          6           0        0.685166    2.827807    0.482443
     13          6           0       -0.163064    1.837046   -0.126847
     14          6           0       -1.503925    2.219393   -0.378005
     15          6           0       -1.990719    3.456125    0.023148
     16          6           0       -1.178985    4.369082    0.707283
     17          6           0       -1.937885   -0.638310   -0.408379
     18          6           0       -2.359445   -0.499087    0.919895
     19          6           0       -3.713470   -0.419727    1.227215
     20          6           0       -4.671009   -0.502001    0.214102
     21          6           0       -4.259124   -0.664438   -1.105769
     22          6           0       -2.899060   -0.729472   -1.416396
     23          6           0        0.103503   -1.891672    0.093476
     24          6           0       -0.083006   -3.199831   -0.361480
     25          6           0        0.334596   -4.286957    0.403810
     26          6           0        0.928786   -4.082561    1.648106
     27          6           0        1.097441   -2.782273    2.120372
     28          6           0        0.689241   -1.696228    1.348386
     29          1           0       -0.603027   -1.785615   -2.390539
     30          1           0        4.665492    2.082242    0.544672
     31          1           0        5.749701    0.102574   -0.505508
     32          1           0        4.336103   -1.618954   -1.624395
     33          1           0        1.900375   -1.418812   -1.657221
     34          1           0        2.693971    3.349328    1.076116
     35          1           0        0.814419    4.772745    1.416449
     36          1           0       -2.167614    1.564831   -0.930708
     37          1           0       -3.026269    3.712245   -0.202072
     38          1           0       -1.583966    5.324383    1.040798
     39          1           0       -1.626913   -0.433722    1.725609
     40          1           0       -4.023095   -0.294436    2.265955
     41          1           0       -5.733397   -0.441311    0.455314
     42          1           0       -4.997261   -0.732626   -1.906529
     43          1           0       -2.592275   -0.817147   -2.458215
     44          1           0       -0.565846   -3.401603   -1.320217
     45          1           0        0.188396   -5.298950    0.023153
     46          1           0        1.255874   -4.933158    2.247997
     47          1           0        1.557450   -2.606192    3.093934
     48          1           0        0.844905   -0.687880    1.736724
 ---------------------------------------------------------------------
 Rotational constants (GHZ):      0.2279295      0.2057254      0.1293203
 Standard basis: CC-pVDZ (5D, 7F)
 There are   520 symmetry adapted cartesian basis functions of A   symmetry.
 There are   492 symmetry adapted basis functions of A   symmetry.
   492 basis functions,  1064 primitive gaussians,   520 cartesian basis functions
    95 alpha electrons       94 beta electrons
       nuclear repulsion energy      2491.6851166266 Hartrees.
 NAtoms=   48 NActive=   48 NUniq=   48 SFac= 1.00D+00 NAtFMM=   60 NAOKFM=F Big=F
 Integral buffers will be    131072 words long.
 Raffenetti 2 integral format.
 Two-electron integral symmetry is turned on.
 Nuclear repulsion after empirical dispersion term =     2491.6404470927 Hartrees.
 ------------------------------------------------------------------------------
 Polarizable Continuum Model (PCM)
 =================================
 Model                : C-PCM.
 Atomic radii         : UFF (Universal Force Field).
 Polarization charges : Total charges.
 Charge compensation  : None.
 Solution method      : On-the-fly selection.
 Cavity type          : Scaled VdW (van der Waals Surface) (Alpha=1.100).
 Cavity algorithm     : GePol (No added spheres)
                        Default sphere list used, NSphG=   48.
                        Lebedev-Laikov grids with approx.  5.0 points / Ang**2.
                        Smoothing algorithm: Karplus/York (Gamma=1.0000).
                        Polarization charges: spherical gaussians, with
                                              point-specific exponents (IZeta= 3).
                        Self-potential: point-specific (ISelfS= 7).
                        Self-field    : sphere-specific E.n sum rule (ISelfD= 2).
 Solvent              : n,n-DiMethylFormamide, Eps=  37.219000 Eps(inf)=   2.046330
 ------------------------------------------------------------------------------
 One-electron integrals computed using PRISM.
 NBasis=   492 RedAO= T EigKep=  1.13D-04  NBF=   492
 NBsUse=   492 1.00D-06 EigRej= -1.00D+00 NBFU=   492
 Initial guess from the checkpoint file:  "D:\Yaroslav\pink-mystery\monomer_OHradcat\opt-wb\monomer_OHradcat.chk"
 B after Tr=     0.000000    0.000000    0.000000
         Rot=    1.000000    0.000000    0.000000    0.000000 Ang=   0.00 deg.
 Initial guess <Sx>= 0.0000 <Sy>= 0.0000 <Sz>= 0.5000 <S**2>= 0.7826 S= 0.5162
 Requested convergence on RMS density matrix=1.00D-08 within 128 cycles.
 Requested convergence on MAX density matrix=1.00D-06.
 Requested convergence on             energy=1.00D-06.
 No special actions if energy rises.
 Inv3:  Mode=1 IEnd=    33346668.
 Iteration    1 A*A^-1 deviation from unit magnitude is 6.66D-15 for   1287.
 Iteration    1 A*A^-1 deviation from orthogonality  is 2.81D-15 for   3242   2837.
 Iteration    1 A^-1*A deviation from unit magnitude is 6.00D-15 for   1287.
 Iteration    1 A^-1*A deviation from orthogonality  is 4.40D-15 for   2972   1556.
 Error on total polarization charges =  0.01241
 SCF Done:  E(UwB97XD) =  -1115.64730975     A.U. after    8 cycles
            NFock=  8  Conv=0.99D-08     -V/T= 2.0068
 <Sx>= 0.0000 <Sy>= 0.0000 <Sz>= 0.5000 <S**2>= 0.7826 S= 0.5162
 <L.S>= 0.000000000000E+00
 Annihilation of the first spin contaminant:
 S**2 before annihilation     0.7826,   after     0.7508
 DoSCS=F DFT=T ScalE2(SS,OS)=  1.000000  1.000000
 ExpMin= 1.22D-01 ExpMax= 1.17D+04 ExpMxC= 4.01D+02 IAcc=3 IRadAn=         5 AccDes= 0.00D+00
 HarFok:  IExCor=  205 AccDes= 0.00D+00 IRadAn=         5 IDoV=-2 UseB2=F ITyADJ=14
 ICtDFT= 12500011 ScaDFX=  1.000000  1.000000  1.000000  1.000000
 Range of M.O.s used for correlation:    29   492
 NBasis=   492 NAE=    95 NBE=    94 NFC=    28 NFV=     0
 NROrb=    464 NOA=    67 NOB=    66 NVA=   397 NVB=   398

 **** Warning!!: The largest alpha MO coefficient is  0.15811458D+02


 **** Warning!!: The largest beta MO coefficient is  0.16238617D+02

 Would need an additional         41615000000 words for in-memory AO integral storage.
 NEqPCM:  Using non-equilibrium solvation (IEInf=1, Eps=  37.2190, EpsInf=   2.0463)
 Inv3:  Mode=1 IEnd=    33346668.
 Iteration    1 A*A^-1 deviation from unit magnitude is 6.66D-15 for   1287.
 Iteration    1 A*A^-1 deviation from orthogonality  is 2.81D-15 for   3242   2837.
 Iteration    1 A^-1*A deviation from unit magnitude is 6.00D-15 for   1287.
 Iteration    1 A^-1*A deviation from orthogonality  is 4.40D-15 for   2972   1556.
 Orbital symmetries:
 Alpha Orbitals:
       Occupied  (A) (A) (A) (A) (A) (A) (A) (A) (A) (A) (A) (A)
                 (A) (A) (A) (A) (A) (A) (A) (A) (A) (A) (A) (A)
                 (A) (A) (A) (A) (A) (A) (A) (A) (A) (A) (A) (A)
                 (A) (A) (A) (A) (A) (A) (A) (A) (A) (A) (A) (A)
                 (A) (A) (A) (A) (A) (A) (A) (A) (A) (A) (A) (A)
                 (A) (A) (A) (A) (A) (A) (A) (A) (A) (A) (A) (A)
                 (A) (A) (A) (A) (A) (A) (A) (A) (A) (A) (A) (A)
                 (A) (A) (A) (A) (A) (A) (A) (A) (A) (A) (A)
       Virtual   (A) (A) (A) (A) (A) (A) (A) (A) (A) (A) (A) (A)
                 (A) (A) (A) (A) (A) (A) (A) (A) (A) (A) (A) (A)
                 (A) (A) (A) (A) (A) (A) (A) (A) (A) (A) (A) (A)
                 (A) (A) (A) (A) (A) (A) (A) (A) (A) (A) (A) (A)
                 (A) (A) (A) (A) (A) (A) (A) (A) (A) (A) (A) (A)
                 (A) (A) (A) (A) (A) (A) (A) (A) (A) (A) (A) (A)
                 (A) (A) (A) (A) (A) (A) (A) (A) (A) (A) (A) (A)
                 (A) (A) (A) (A) (A) (A) (A) (A) (A) (A) (A) (A)
                 (A) (A) (A) (A) (A) (A) (A) (A) (A) (A) (A) (A)
                 (A) (A) (A) (A) (A) (A) (A) (A) (A) (A) (A) (A)
                 (A) (A) (A) (A) (A) (A) (A) (A) (A) (A) (A) (A)
                 (A) (A) (A) (A) (A) (A) (A) (A) (A) (A) (A) (A)
                 (A) (A) (A) (A) (A) (A) (A) (A) (A) (A) (A) (A)
                 (A) (A) (A) (A) (A) (A) (A) (A) (A) (A) (A) (A)
                 (A) (A) (A) (A) (A) (A) (A) (A) (A) (A) (A) (A)
                 (A) (A) (A) (A) (A) (A) (A) (A) (A) (A) (A) (A)
                 (A) (A) (A) (A) (A) (A) (A) (A) (A) (A) (A) (A)
                 (A) (A) (A) (A) (A) (A) (A) (A) (A) (A) (A) (A)
                 (A) (A) (A) (A) (A) (A) (A) (A) (A) (A) (A) (A)
                 (A) (A) (A) (A) (A) (A) (A) (A) (A) (A) (A) (A)
                 (A) (A) (A) (A) (A) (A) (A) (A) (A) (A) (A) (A)
                 (A) (A) (A) (A) (A) (A) (A) (A) (A) (A) (A) (A)
                 (A) (A) (A) (A) (A) (A) (A) (A) (A) (A) (A) (A)
                 (A) (A) (A) (A) (A) (A) (A) (A) (A) (A) (A) (A)
                 (A) (A) (A) (A) (A) (A) (A) (A) (A) (A) (A) (A)
                 (A) (A) (A) (A) (A) (A) (A) (A) (A) (A) (A) (A)
                 (A) (A) (A) (A) (A) (A) (A) (A) (A) (A) (A) (A)
                 (A) (A) (A) (A) (A) (A) (A) (A) (A) (A) (A) (A)
                 (A) (A) (A) (A) (A) (A) (A) (A) (A) (A) (A) (A)
                 (A) (A) (A) (A) (A) (A) (A) (A) (A) (A) (A) (A)
                 (A) (A) (A) (A) (A) (A) (A) (A) (A) (A) (A) (A)
                 (A) (A) (A) (A) (A) (A) (A) (A) (A) (A) (A) (A)
                 (A) (A) (A) (A) (A) (A) (A) (A) (A) (A) (A) (A)
                 (A)
 Beta  Orbitals:
       Occupied  (A) (A) (A) (A) (A) (A) (A) (A) (A) (A) (A) (A)
                 (A) (A) (A) (A) (A) (A) (A) (A) (A) (A) (A) (A)
                 (A) (A) (A) (A) (A) (A) (A) (A) (A) (A) (A) (A)
                 (A) (A) (A) (A) (A) (A) (A) (A) (A) (A) (A) (A)
                 (A) (A) (A) (A) (A) (A) (A) (A) (A) (A) (A) (A)
                 (A) (A) (A) (A) (A) (A) (A) (A) (A) (A) (A) (A)
                 (A) (A) (A) (A) (A) (A) (A) (A) (A) (A) (A) (A)
                 (A) (A) (A) (A) (A) (A) (A) (A) (A) (A)
       Virtual   (A) (A) (A) (A) (A) (A) (A) (A) (A) (A) (A) (A)
                 (A) (A) (A) (A) (A) (A) (A) (A) (A) (A) (A) (A)
                 (A) (A) (A) (A) (A) (A) (A) (A) (A) (A) (A) (A)
                 (A) (A) (A) (A) (A) (A) (A) (A) (A) (A) (A) (A)
                 (A) (A) (A) (A) (A) (A) (A) (A) (A) (A) (A) (A)
                 (A) (A) (A) (A) (A) (A) (A) (A) (A) (A) (A) (A)
                 (A) (A) (A) (A) (A) (A) (A) (A) (A) (A) (A) (A)
                 (A) (A) (A) (A) (A) (A) (A) (A) (A) (A) (A) (A)
                 (A) (A) (A) (A) (A) (A) (A) (A) (A) (A) (A) (A)
                 (A) (A) (A) (A) (A) (A) (A) (A) (A) (A) (A) (A)
                 (A) (A) (A) (A) (A) (A) (A) (A) (A) (A) (A) (A)
                 (A) (A) (A) (A) (A) (A) (A) (A) (A) (A) (A) (A)
                 (A) (A) (A) (A) (A) (A) (A) (A) (A) (A) (A) (A)
                 (A) (A) (A) (A) (A) (A) (A) (A) (A) (A) (A) (A)
                 (A) (A) (A) (A) (A) (A) (A) (A) (A) (A) (A) (A)
                 (A) (A) (A) (A) (A) (A) (A) (A) (A) (A) (A) (A)
                 (A) (A) (A) (A) (A) (A) (A) (A) (A) (A) (A) (A)
                 (A) (A) (A) (A) (A) (A) (A) (A) (A) (A) (A) (A)
                 (A) (A) (A) (A) (A) (A) (A) (A) (A) (A) (A) (A)
                 (A) (A) (A) (A) (A) (A) (A) (A) (A) (A) (A) (A)
                 (A) (A) (A) (A) (A) (A) (A) (A) (A) (A) (A) (A)
                 (A) (A) (A) (A) (A) (A) (A) (A) (A) (A) (A) (A)
                 (A) (A) (A) (A) (A) (A) (A) (A) (A) (A) (A) (A)
                 (A) (A) (A) (A) (A) (A) (A) (A) (A) (A) (A) (A)
                 (A) (A) (A) (A) (A) (A) (A) (A) (A) (A) (A) (A)
                 (A) (A) (A) (A) (A) (A) (A) (A) (A) (A) (A) (A)
                 (A) (A) (A) (A) (A) (A) (A) (A) (A) (A) (A) (A)
                 (A) (A) (A) (A) (A) (A) (A) (A) (A) (A) (A) (A)
                 (A) (A) (A) (A) (A) (A) (A) (A) (A) (A) (A) (A)
                 (A) (A) (A) (A) (A) (A) (A) (A) (A) (A) (A) (A)
                 (A) (A) (A) (A) (A) (A) (A) (A) (A) (A) (A) (A)
                 (A) (A) (A) (A) (A) (A) (A) (A) (A) (A) (A) (A)
                 (A) (A) (A) (A) (A) (A) (A) (A) (A) (A) (A) (A)
                 (A) (A)
   240 initial guesses have been made.
 Convergence on wavefunction:    0.001000000000000
 Iteration     1 Dimension   240 NMult     0 NNew    240
 CISAX will form   240 AO SS matrices at one time.
 New state      1 was old state      6
 New state      2 was old state      1
 New state      3 was old state      2
 New state      4 was old state      7
 New state      5 was old state      4
 New state      6 was old state      3
 New state      7 was old state      5
 New state      9 was old state     16
 New state     11 was old state     25
 New state     12 was old state     13
 New state     13 was old state      9
 New state     14 was old state     42
 New state     15 was old state     85
 New state     16 was old state     17
 New state     17 was old state     59
 New state     18 was old state     30
 New state     19 was old state     28
 New state     20 was old state     11
 New state     21 was old state     14
 New state     22 was old state     12
 New state     23 was old state     15
 New state     24 was old state     43
 New state     25 was old state     57
 New state     26 was old state     75
 New state     27 was old state     95
 New state     28 was old state     33
 New state     29 was old state     22
 New state     30 was old state     74
 New state     31 was old state     64
 New state     32 was old state     37
 New state     33 was old state     27
 New state     34 was old state     72
 New state     35 was old state     19
 New state     36 was old state     18
 New state     37 was old state     23
 New state     38 was old state     49
 New state     39 was old state     69
 New state     40 was old state     77
 New state     41 was old state     52
 New state     42 was old state     24
 New state     43 was old state     21
 New state     44 was old state     20
 New state     45 was old state     29
 New state     46 was old state     48
 New state     47 was old state     94
 New state     48 was old state     34
 New state     49 was old state     51
 New state     50 was old state     41
 New state     51 was old state     39
 New state     52 was old state     65
 New state     53 was old state    137
 New state     54 was old state     31
 New state     55 was old state     78
 New state     56 was old state     32
 New state     57 was old state     97
 New state     58 was old state     26
 New state     59 was old state    111
 New state     60 was old state     36
 Iteration     2 Dimension   360 NMult   240 NNew    120
 New state      3 was old state      4
 New state      4 was old state      3
 New state     10 was old state     11
 New state     11 was old state     10
 New state     13 was old state     14
 New state     14 was old state     15
 New state     15 was old state     13
 New state     21 was old state     22
 New state     22 was old state     21
 New state     24 was old state     25
 New state     25 was old state     24
 New state     27 was old state     28
 New state     28 was old state     27
 New state     30 was old state     33
 New state     31 was old state     41
 New state     32 was old state     30
 New state     33 was old state     31
 New state     35 was old state     32
 New state     36 was old state     35
 New state     37 was old state     36
 New state     38 was old state     37
 New state     40 was old state     38
 New state     41 was old state     46
 New state     42 was old state     44
 New state     43 was old state     42
 New state     44 was old state     47
 New state     45 was old state     43
 New state     46 was old state     49
 New state     47 was old state     45
 New state     48 was old state     50
 New state     49 was old state     48
 New state     50 was old state     56
 New state     51 was old state     52
 New state     52 was old state     53
 New state     53 was old state     51
 New state     54 was old state     55
 New state     55 was old state     57
 New state     56 was old state     59
 New state     57 was old state     54
 New state     58 was old state     60
 New state     59 was old state     58
 New state     60 was old state     63
 Iteration     3 Dimension   480 NMult   360 NNew    120
 New state     51 was old state     52
 New state     52 was old state     51
 Iteration     4 Dimension   600 NMult   480 NNew    120
 New state     58 was old state     60
 New state     60 was old state     58
 Iteration     5 Dimension   686 NMult   600 NNew     86
 Iteration     6 Dimension   708 NMult   686 NNew     22
 Iteration     7 Dimension   716 NMult   708 NNew      8
 ***********************************************************************
 Excited states from <AA,BB:AA,BB> singles matrix:
 ***********************************************************************
 
 ExtSpn:  IState=     1 X2= 1.019 Y2= 0.019 X2-Y2-1= 1.33D-15
          S2Grnd=  0.783 Ra=  0.008 Rb=  0.024 T=  0.025 S2Ext=  0.057 S2=  0.840
 ExtSpn:  IState=     2 X2= 1.017 Y2= 0.017 X2-Y2-1= 2.22D-16
          S2Grnd=  0.783 Ra=  0.021 Rb=  0.017 T=  0.016 S2Ext=  0.054 S2=  0.836
 ExtSpn:  IState=     3 X2= 1.027 Y2= 0.027 X2-Y2-1= 4.44D-16
          S2Grnd=  0.783 Ra=  0.023 Rb=  0.020 T=  0.013 S2Ext=  0.055 S2=  0.838
 ExtSpn:  IState=     4 X2= 1.003 Y2= 0.003 X2-Y2-1= 2.22D-15
          S2Grnd=  0.783 Ra=  0.007 Rb=  0.020 T=  0.000 S2Ext=  0.027 S2=  0.810
 ExtSpn:  IState=     5 X2= 1.004 Y2= 0.004 X2-Y2-1=-1.44D-15
          S2Grnd=  0.783 Ra=  0.010 Rb=  0.019 T=  0.009 S2Ext=  0.039 S2=  0.822
 ExtSpn:  IState=     6 X2= 1.003 Y2= 0.003 X2-Y2-1=-5.55D-16
          S2Grnd=  0.783 Ra=  0.009 Rb=  0.021 T=  0.011 S2Ext=  0.041 S2=  0.824
 ExtSpn:  IState=     7 X2= 1.001 Y2= 0.001 X2-Y2-1= 1.33D-15
          S2Grnd=  0.783 Ra=  0.002 Rb=  0.015 T=  0.002 S2Ext=  0.020 S2=  0.802
 ExtSpn:  IState=     8 X2= 1.004 Y2= 0.004 X2-Y2-1= 1.33D-15
          S2Grnd=  0.783 Ra=  0.022 Rb=  0.030 T=  0.027 S2Ext=  0.079 S2=  0.861
 ExtSpn:  IState=     9 X2= 1.012 Y2= 0.012 X2-Y2-1= 0.00D+00
          S2Grnd=  0.783 Ra=  0.777 Rb=  0.157 T=  0.643 S2Ext=  1.577 S2=  2.359
 ExtSpn:  IState=    10 X2= 1.015 Y2= 0.015 X2-Y2-1=-4.44D-16
          S2Grnd=  0.783 Ra=  0.340 Rb=  0.199 T=  0.463 S2Ext=  1.002 S2=  1.784
 ExtSpn:  IState=    11 X2= 1.012 Y2= 0.012 X2-Y2-1= 0.00D+00
          S2Grnd=  0.783 Ra=  0.246 Rb=  0.153 T=  0.352 S2Ext=  0.750 S2=  1.533
 ExtSpn:  IState=    12 X2= 1.015 Y2= 0.015 X2-Y2-1=-1.33D-15
          S2Grnd=  0.783 Ra=  0.104 Rb=  0.108 T=  0.197 S2Ext=  0.409 S2=  1.191
 ExtSpn:  IState=    13 X2= 1.055 Y2= 0.055 X2-Y2-1= 3.11D-15
          S2Grnd=  0.783 Ra=  0.500 Rb=  0.498 T=  0.996 S2Ext=  1.993 S2=  2.776
 ExtSpn:  IState=    14 X2= 1.056 Y2= 0.056 X2-Y2-1= 0.00D+00
          S2Grnd=  0.783 Ra=  0.502 Rb=  0.496 T=  0.996 S2Ext=  1.994 S2=  2.777
 ExtSpn:  IState=    15 X2= 1.003 Y2= 0.003 X2-Y2-1= 6.66D-16
          S2Grnd=  0.783 Ra=  0.763 Rb=  0.198 T= -0.210 S2Ext=  0.751 S2=  1.534
 ExtSpn:  IState=    16 X2= 1.008 Y2= 0.008 X2-Y2-1= 3.11D-15
          S2Grnd=  0.783 Ra=  0.251 Rb=  0.212 T=  0.417 S2Ext=  0.881 S2=  1.663
 ExtSpn:  IState=    17 X2= 1.004 Y2= 0.004 X2-Y2-1= 3.33D-15
          S2Grnd=  0.783 Ra=  0.143 Rb=  0.155 T=  0.239 S2Ext=  0.537 S2=  1.319
 ExtSpn:  IState=    18 X2= 1.004 Y2= 0.004 X2-Y2-1=-1.11D-15
          S2Grnd=  0.783 Ra=  0.127 Rb=  0.378 T= -0.107 S2Ext=  0.398 S2=  1.181
 ExtSpn:  IState=    19 X2= 1.002 Y2= 0.002 X2-Y2-1= 2.00D-15
          S2Grnd=  0.783 Ra=  0.018 Rb=  0.089 T= -0.003 S2Ext=  0.104 S2=  0.886
 ExtSpn:  IState=    20 X2= 1.004 Y2= 0.004 X2-Y2-1=-2.00D-15
          S2Grnd=  0.783 Ra=  0.634 Rb=  0.281 T= -0.214 S2Ext=  0.701 S2=  1.483
 ExtSpn:  IState=    21 X2= 1.004 Y2= 0.004 X2-Y2-1= 2.00D-15
          S2Grnd=  0.783 Ra=  0.668 Rb=  0.286 T=  0.135 S2Ext=  1.089 S2=  1.871
 ExtSpn:  IState=    22 X2= 1.002 Y2= 0.002 X2-Y2-1=-3.33D-16
          S2Grnd=  0.783 Ra=  0.749 Rb=  0.237 T=  0.506 S2Ext=  1.492 S2=  2.274
 ExtSpn:  IState=    23 X2= 1.003 Y2= 0.003 X2-Y2-1=-8.88D-16
          S2Grnd=  0.783 Ra=  0.627 Rb=  0.359 T=  0.701 S2Ext=  1.686 S2=  2.469
 ExtSpn:  IState=    24 X2= 1.003 Y2= 0.003 X2-Y2-1= 4.44D-16
          S2Grnd=  0.783 Ra=  0.540 Rb=  0.450 T=  0.793 S2Ext=  1.783 S2=  2.565
 ExtSpn:  IState=    25 X2= 1.003 Y2= 0.003 X2-Y2-1= 1.33D-15
          S2Grnd=  0.783 Ra=  0.705 Rb=  0.251 T=  0.402 S2Ext=  1.358 S2=  2.141
 ExtSpn:  IState=    26 X2= 1.003 Y2= 0.003 X2-Y2-1=-1.11D-15
          S2Grnd=  0.783 Ra=  0.587 Rb=  0.386 T=  0.637 S2Ext=  1.610 S2=  2.393
 ExtSpn:  IState=    27 X2= 1.001 Y2= 0.001 X2-Y2-1=-1.11D-16
          S2Grnd=  0.783 Ra=  0.035 Rb=  0.074 T=  0.023 S2Ext=  0.132 S2=  0.915
 ExtSpn:  IState=    28 X2= 1.003 Y2= 0.003 X2-Y2-1= 1.33D-15
          S2Grnd=  0.783 Ra=  0.578 Rb=  0.415 T=  0.748 S2Ext=  1.740 S2=  2.523
 ExtSpn:  IState=    29 X2= 1.009 Y2= 0.009 X2-Y2-1=-2.22D-16
          S2Grnd=  0.783 Ra=  0.263 Rb=  0.482 T= -0.245 S2Ext=  0.500 S2=  1.283
 ExtSpn:  IState=    30 X2= 1.006 Y2= 0.006 X2-Y2-1=-8.88D-16
          S2Grnd=  0.783 Ra=  0.494 Rb=  0.414 T=  0.730 S2Ext=  1.638 S2=  2.421
 ExtSpn:  IState=    31 X2= 1.015 Y2= 0.015 X2-Y2-1=-3.66D-15
          S2Grnd=  0.783 Ra=  0.495 Rb=  0.262 T=  0.547 S2Ext=  1.304 S2=  2.086
 ExtSpn:  IState=    32 X2= 1.007 Y2= 0.007 X2-Y2-1=-1.11D-16
          S2Grnd=  0.783 Ra=  0.284 Rb=  0.570 T=  0.237 S2Ext=  1.091 S2=  1.873
 ExtSpn:  IState=    33 X2= 1.003 Y2= 0.003 X2-Y2-1=-7.77D-16
          S2Grnd=  0.783 Ra=  0.170 Rb=  0.256 T=  0.052 S2Ext=  0.478 S2=  1.260
 ExtSpn:  IState=    34 X2= 1.005 Y2= 0.005 X2-Y2-1=-4.44D-16
          S2Grnd=  0.783 Ra=  0.393 Rb=  0.424 T=  0.584 S2Ext=  1.401 S2=  2.184
 ExtSpn:  IState=    35 X2= 1.006 Y2= 0.006 X2-Y2-1=-1.22D-15
          S2Grnd=  0.783 Ra=  0.437 Rb=  0.453 T=  0.858 S2Ext=  1.748 S2=  2.531
 ExtSpn:  IState=    36 X2= 1.003 Y2= 0.003 X2-Y2-1= 5.55D-15
          S2Grnd=  0.783 Ra=  0.689 Rb=  0.230 T= -0.002 S2Ext=  0.916 S2=  1.699
 ExtSpn:  IState=    37 X2= 1.001 Y2= 0.001 X2-Y2-1= 3.33D-15
          S2Grnd=  0.783 Ra=  0.132 Rb=  0.210 T= -0.045 S2Ext=  0.297 S2=  1.079
 ExtSpn:  IState=    38 X2= 1.002 Y2= 0.002 X2-Y2-1= 2.66D-15
          S2Grnd=  0.783 Ra=  0.141 Rb=  0.213 T=  0.111 S2Ext=  0.465 S2=  1.248
 ExtSpn:  IState=    39 X2= 1.002 Y2= 0.002 X2-Y2-1= 1.11D-15
          S2Grnd=  0.783 Ra=  0.187 Rb=  0.251 T= -0.249 S2Ext=  0.189 S2=  0.972
 ExtSpn:  IState=    40 X2= 1.002 Y2= 0.002 X2-Y2-1=-7.77D-16
          S2Grnd=  0.783 Ra=  0.384 Rb=  0.438 T= -0.753 S2Ext=  0.069 S2=  0.851
 ExtSpn:  IState=    41 X2= 1.003 Y2= 0.003 X2-Y2-1= 0.00D+00
          S2Grnd=  0.783 Ra=  0.415 Rb=  0.338 T= -0.416 S2Ext=  0.337 S2=  1.120
 ExtSpn:  IState=    42 X2= 1.004 Y2= 0.004 X2-Y2-1= 1.55D-15
          S2Grnd=  0.783 Ra=  0.153 Rb=  0.223 T=  0.106 S2Ext=  0.482 S2=  1.265
 ExtSpn:  IState=    43 X2= 1.003 Y2= 0.003 X2-Y2-1= 1.33D-15
          S2Grnd=  0.783 Ra=  0.186 Rb=  0.614 T=  0.118 S2Ext=  0.918 S2=  1.700
 ExtSpn:  IState=    44 X2= 1.002 Y2= 0.002 X2-Y2-1=-5.55D-16
          S2Grnd=  0.783 Ra=  0.247 Rb=  0.429 T=  0.380 S2Ext=  1.056 S2=  1.838
 ExtSpn:  IState=    45 X2= 1.001 Y2= 0.001 X2-Y2-1= 1.33D-15
          S2Grnd=  0.783 Ra=  0.110 Rb=  0.463 T=  0.127 S2Ext=  0.700 S2=  1.482
 ExtSpn:  IState=    46 X2= 1.000 Y2= 0.000 X2-Y2-1=-1.11D-16
          S2Grnd=  0.783 Ra=  0.016 Rb=  0.457 T=  0.012 S2Ext=  0.485 S2=  1.268
 ExtSpn:  IState=    47 X2= 1.001 Y2= 0.001 X2-Y2-1= 3.33D-15
          S2Grnd=  0.783 Ra=  0.131 Rb=  0.804 T= -0.022 S2Ext=  0.914 S2=  1.696
 ExtSpn:  IState=    48 X2= 1.001 Y2= 0.001 X2-Y2-1= 2.00D-15
          S2Grnd=  0.783 Ra=  0.072 Rb=  0.189 T= -0.052 S2Ext=  0.210 S2=  0.992
 ExtSpn:  IState=    49 X2= 1.002 Y2= 0.002 X2-Y2-1= 3.33D-15
          S2Grnd=  0.783 Ra=  0.335 Rb=  0.419 T= -0.426 S2Ext=  0.328 S2=  1.110
 ExtSpn:  IState=    50 X2= 1.005 Y2= 0.005 X2-Y2-1= 4.44D-16
          S2Grnd=  0.783 Ra=  0.531 Rb=  0.403 T= -0.725 S2Ext=  0.209 S2=  0.991
 ExtSpn:  IState=    51 X2= 1.003 Y2= 0.003 X2-Y2-1= 3.55D-15
          S2Grnd=  0.783 Ra=  0.516 Rb=  0.389 T=  0.784 S2Ext=  1.688 S2=  2.471
 ExtSpn:  IState=    52 X2= 1.002 Y2= 0.002 X2-Y2-1=-1.22D-15
          S2Grnd=  0.783 Ra=  0.686 Rb=  0.186 T= -0.302 S2Ext=  0.570 S2=  1.353
 ExtSpn:  IState=    53 X2= 1.003 Y2= 0.003 X2-Y2-1=-7.77D-16
          S2Grnd=  0.783 Ra=  0.191 Rb=  0.502 T=  0.059 S2Ext=  0.751 S2=  1.534
 ExtSpn:  IState=    54 X2= 1.002 Y2= 0.002 X2-Y2-1=-8.88D-16
          S2Grnd=  0.783 Ra=  0.562 Rb=  0.288 T=  0.150 S2Ext=  1.000 S2=  1.782
 ExtSpn:  IState=    55 X2= 1.002 Y2= 0.002 X2-Y2-1= 1.33D-15
          S2Grnd=  0.783 Ra=  0.523 Rb=  0.179 T=  0.401 S2Ext=  1.103 S2=  1.885
 ExtSpn:  IState=    56 X2= 1.001 Y2= 0.001 X2-Y2-1= 5.77D-15
          S2Grnd=  0.783 Ra=  0.122 Rb=  0.152 T= -0.019 S2Ext=  0.255 S2=  1.038
 ExtSpn:  IState=    57 X2= 1.004 Y2= 0.004 X2-Y2-1= 1.55D-15
          S2Grnd=  0.783 Ra=  0.354 Rb=  0.416 T= -0.396 S2Ext=  0.375 S2=  1.157
 ExtSpn:  IState=    58 X2= 1.005 Y2= 0.005 X2-Y2-1=-1.22D-15
          S2Grnd=  0.783 Ra=  0.437 Rb=  0.472 T= -0.741 S2Ext=  0.168 S2=  0.951
 ExtSpn:  IState=    59 X2= 1.001 Y2= 0.001 X2-Y2-1= 2.22D-16
          S2Grnd=  0.783 Ra=  0.220 Rb=  0.213 T= -0.172 S2Ext=  0.260 S2=  1.043
 ExtSpn:  IState=    60 X2= 1.001 Y2= 0.001 X2-Y2-1= 1.78D-15
          S2Grnd=  0.783 Ra=  0.133 Rb=  0.185 T= -0.118 S2Ext=  0.201 S2=  0.983
 Ground to excited state transition densities written to RWF  633
 Ground to excited state transition electric dipole moments (Au):
       state          X           Y           Z        Dip. S.      Osc.
         1        -0.4148      0.3002      0.0807      0.2687      0.0109
         2         1.2992     -0.9311     -0.2307      2.6080      0.1143
         3         0.5881      0.5240      0.1707      0.6496      0.0371
         4        -0.5656      0.3570      0.1643      0.4744      0.0280
         5        -0.0376      0.3269      0.0529      0.1111      0.0073
         6         0.2578      0.2464      0.0249      0.1278      0.0090
         7         0.0174     -0.1519     -0.0589      0.0268      0.0019
         8         0.3377      0.5343      0.0895      0.4075      0.0312
         9         0.7924     -0.6438     -0.1616      1.0685      0.0878
        10         0.5444     -0.2000      0.0145      0.3365      0.0279
        11         0.2856     -0.4486     -0.2111      0.3274      0.0275
        12        -0.5128     -0.5334     -0.2852      0.6288      0.0532
        13         0.0375      0.0111      0.0088      0.0016      0.0001
        14        -0.0226      0.0078      0.0029      0.0006      0.0001
        15        -0.1271     -0.0919      0.0668      0.0291      0.0029
        16         0.1149      0.1944      0.1046      0.0619      0.0064
        17         0.1372      0.3392      0.1028      0.1444      0.0150
        18         0.2405     -0.0674     -0.0201      0.0628      0.0066
        19        -0.0265      0.1153      0.0253      0.0146      0.0015
        20        -0.0210      0.1939     -0.0190      0.0384      0.0042
        21        -0.1815     -0.0611     -0.0089      0.0368      0.0041
        22         0.0691     -0.0202     -0.0186      0.0055      0.0006
        23        -0.0158     -0.1815     -0.0156      0.0334      0.0039
        24         0.1275     -0.0353     -0.0096      0.0176      0.0020
        25        -0.0615     -0.1973     -0.0348      0.0439      0.0051
        26         0.1770     -0.3301     -0.0523      0.1430      0.0168
        27        -0.0036      0.0057     -0.0188      0.0004      0.0000
        28        -0.0464     -0.0820     -0.0096      0.0090      0.0011
        29        -1.9408      1.2726      0.2780      5.4636      0.6579
        30         0.4686     -0.2904     -0.1840      0.3378      0.0411
        31        -0.2549      0.9594      0.3437      1.1035      0.1349
        32        -1.3496      0.8293      0.2768      2.5858      0.3207
        33        -0.7673      0.5507      0.1833      0.9255      0.1151
        34         0.5857     -0.2832     -0.1043      0.4341      0.0541
        35         0.2586     -0.0791     -0.0347      0.0743      0.0093
        36        -0.5780      0.5821      0.1513      0.6957      0.0882
        37        -0.4150      0.1936      0.0934      0.2185      0.0285
        38        -0.1186      0.0595      0.0066      0.0176      0.0023
        39        -0.3397      0.1065     -0.0259      0.1274      0.0167
        40        -0.1546      0.0688     -0.0545      0.0316      0.0042
        41         0.1219      0.0772      0.0263      0.0215      0.0028
        42         0.1753     -0.0672     -0.0333      0.0363      0.0048
        43        -0.2065     -0.0023      0.0441      0.0446      0.0060
        44        -0.1100      0.0112     -0.0702      0.0171      0.0023
        45        -0.0103      0.0647      0.0839      0.0113      0.0015
        46        -0.0524      0.0803     -0.0072      0.0092      0.0013
        47         0.1163     -0.1803     -0.0418      0.0478      0.0065
        48        -0.0961      0.0111     -0.0366      0.0107      0.0015
        49         0.1453      0.0540      0.0063      0.0241      0.0034
        50        -0.8341      0.6600     -0.1276      1.1476      0.1632
        51        -0.1086      0.1060      0.0467      0.0252      0.0036
        52         0.6082     -0.0801      0.1099      0.3884      0.0555
        53        -0.1903      0.1789     -0.1671      0.0962      0.0139
        54        -0.1239     -0.2097     -0.0236      0.0599      0.0088
        55         0.0096     -0.0052      0.0924      0.0086      0.0013
        56        -0.0418     -0.0805      0.0412      0.0099      0.0015
        57        -0.1570     -0.0206      0.1170      0.0388      0.0058
        58         0.0589      0.3711     -0.1016      0.1515      0.0228
        59        -0.2033      0.1067      0.0850      0.0600      0.0091
        60        -0.0913     -0.1833     -0.0892      0.0499      0.0076
 Ground to excited state transition velocity dipole moments (Au):
       state          X           Y           Z        Dip. S.      Osc.
         1         0.0265     -0.0189     -0.0055      0.0011      0.0119
         2        -0.0864      0.0618      0.0152      0.0115      0.1168
         3        -0.0547     -0.0499     -0.0181      0.0058      0.0452
         4         0.0486     -0.0321     -0.0146      0.0036      0.0271
         5         0.0029     -0.0321     -0.0049      0.0011      0.0072
         6        -0.0287     -0.0275     -0.0010      0.0016      0.0100
         7        -0.0022      0.0159      0.0054      0.0003      0.0018
         8        -0.0394     -0.0592     -0.0113      0.0052      0.0301
         9        -0.0955      0.0773      0.0196      0.0155      0.0837
        10        -0.0672      0.0255     -0.0016      0.0052      0.0277
        11        -0.0338      0.0537      0.0262      0.0047      0.0250
        12         0.0613      0.0664      0.0349      0.0094      0.0493
        13        -0.0049     -0.0014     -0.0012      0.0000      0.0001
        14         0.0029     -0.0009     -0.0003      0.0000      0.0000
        15         0.0159      0.0146     -0.0085      0.0005      0.0024
        16        -0.0179     -0.0296     -0.0150      0.0014      0.0061
        17        -0.0222     -0.0514     -0.0156      0.0034      0.0145
        18        -0.0345      0.0080      0.0029      0.0013      0.0053
        19         0.0022     -0.0168     -0.0039      0.0003      0.0013
        20         0.0063     -0.0332      0.0026      0.0012      0.0046
        21         0.0321      0.0094      0.0011      0.0011      0.0044
        22        -0.0118      0.0041      0.0031      0.0002      0.0006
        23         0.0030      0.0305      0.0031      0.0009      0.0036
        24        -0.0212      0.0059      0.0013      0.0005      0.0019
        25         0.0105      0.0345      0.0070      0.0014      0.0051
        26        -0.0300      0.0570      0.0097      0.0042      0.0160
        27         0.0000     -0.0003      0.0030      0.0000      0.0000
        28         0.0080      0.0140      0.0020      0.0003      0.0010
        29         0.3427     -0.2239     -0.0489      0.1700      0.6273
        30        -0.0843      0.0516      0.0328      0.0108      0.0396
        31         0.0439     -0.1750     -0.0624      0.0364      0.1324
        32         0.2457     -0.1502     -0.0503      0.0855      0.3064
        33         0.1409     -0.1007     -0.0352      0.0312      0.1117
        34        -0.1073      0.0511      0.0184      0.0145      0.0517
        35        -0.0474      0.0142      0.0055      0.0025      0.0088
        36         0.1031     -0.1063     -0.0281      0.0227      0.0797
        37         0.0779     -0.0367     -0.0167      0.0077      0.0263
        38         0.0228     -0.0110     -0.0014      0.0006      0.0022
        39         0.0658     -0.0209      0.0057      0.0048      0.0163
        40         0.0299     -0.0152      0.0130      0.0013      0.0044
        41        -0.0243     -0.0162     -0.0061      0.0009      0.0030
        42        -0.0347      0.0127      0.0056      0.0014      0.0047
        43         0.0399     -0.0001     -0.0070      0.0016      0.0054
        44         0.0210     -0.0014      0.0139      0.0006      0.0021
        45         0.0011     -0.0137     -0.0161      0.0004      0.0015
        46         0.0109     -0.0166      0.0006      0.0004      0.0013
        47        -0.0235      0.0361      0.0106      0.0020      0.0064
        48         0.0209     -0.0026      0.0085      0.0005      0.0017
        49        -0.0302     -0.0110     -0.0019      0.0010      0.0033
        50         0.1780     -0.1391      0.0257      0.0517      0.1616
        51         0.0213     -0.0212     -0.0100      0.0010      0.0031
        52        -0.1279      0.0181     -0.0218      0.0172      0.0534
        53         0.0394     -0.0374      0.0380      0.0044      0.0135
        54         0.0272      0.0426      0.0056      0.0026      0.0079
        55        -0.0032      0.0022     -0.0213      0.0005      0.0014
        56         0.0110      0.0177     -0.0098      0.0005      0.0016
        57         0.0365      0.0044     -0.0265      0.0021      0.0061
        58        -0.0116     -0.0840      0.0243      0.0078      0.0230
        59         0.0436     -0.0222     -0.0184      0.0027      0.0080
        60         0.0200      0.0404      0.0218      0.0025      0.0074
 Ground to excited state transition magnetic dipole moments (Au):
       state          X           Y           Z
         1        -0.2093     -0.5184      0.8569
         2         0.0118     -0.2888      1.0437
         3        -0.1616      0.1052      0.0566
         4        -0.0062     -0.0492      0.1077
         5        -0.0296     -0.0189      0.1123
         6        -0.0600      0.0119     -0.0757
         7        -0.0052      0.0127     -0.0697
         8        -0.0821     -0.0198      0.1220
         9         0.0378     -0.1781      0.8028
        10        -0.0758     -0.0213      0.3403
        11         0.1632     -0.0168      0.0955
        12         0.1615     -0.1813      0.0345
        13        -0.0143      0.0012      0.0185
        14         0.0005      0.0033     -0.0012
        15         0.0219     -0.0947      0.4520
        16        -0.0228      0.0790      0.0108
        17        -0.1564      0.0425     -0.0130
        18        -0.0409     -0.0428      0.2602
        19        -0.0121      0.0725      0.0065
        20         0.0293      0.1886     -0.5670
        21         0.0392      0.2440     -0.5344
        22        -0.0634     -0.0587      0.2237
        23         0.0437      0.0120      0.0054
        24         0.0091      0.0643     -0.0023
        25        -0.0161     -0.1176      0.2638
        26         0.0257     -0.0121      0.2657
        27        -0.0317      0.0387      0.0422
        28         0.0405     -0.0072     -0.0351
        29        -0.2021      0.1519     -1.7712
        30         0.0496     -0.0394      0.4178
        31        -0.2595      0.2068     -0.5837
        32        -0.0458      0.1901     -1.2324
        33        -0.2305      0.2302     -0.6301
        34        -0.0860     -0.0186      0.5054
        35        -0.0761     -0.0097      0.3007
        36        -0.0928      0.1619     -0.7328
        37        -0.1749     -0.0086     -0.0858
        38         0.0312     -0.1984      0.2037
        39         0.0432      0.0763     -0.2081
        40        -0.0485      0.1559     -0.0721
        41         0.1036     -0.0006      0.1727
        42         0.1969      0.2359     -0.2995
        43         0.2037      0.1792     -0.5224
        44        -0.0397     -0.0719      0.0680
        45         0.1143      0.1167     -0.2449
        46        -0.0169     -0.0139      0.0367
        47         0.0640     -0.0027      0.1428
        48        -0.1096     -0.0934      0.2024
        49         0.0123      0.1312     -0.1017
        50        -0.3926     -0.4682      0.2802
        51        -0.0468     -0.1225      0.2073
        52         0.2282      0.2259     -0.1555
        53         0.1309     -0.1678     -0.0937
        54         0.0734      0.0300     -0.1026
        55        -0.0921      0.1200     -0.1341
        56        -0.0734     -0.0304      0.0854
        57         0.0777     -0.2433     -0.0324
        58        -0.0023      0.2955     -0.2123
        59        -0.0739      0.0432     -0.0781
        60        -0.3448      0.0517     -0.1674
 Ground to excited state transition velocity quadrupole moments (Au):
       state          XX          YY          ZZ          XY          XZ          YZ
         1         0.2432     -0.2104     -0.0163      0.0599      0.0064     -0.0621
         2        -0.3572      0.3513     -0.0204     -0.1170      0.0982      0.0191
         3        -0.1593     -0.1400      0.0320     -0.2255     -0.0404     -0.0921
         4         0.3502     -0.3167     -0.0005      0.0737     -0.0579     -0.0248
         5        -0.1028     -0.2691      0.0074      0.1229      0.0383     -0.0617
         6        -0.2695     -0.0912      0.0164      0.0054      0.0366     -0.0464
         7        -0.1229      0.0925     -0.0015      0.0229      0.0127      0.0244
         8        -0.2049     -0.2731      0.0410      0.0030      0.0475     -0.1059
         9        -0.4381      0.4368     -0.0227     -0.1265      0.1082      0.0488
        10        -0.1998      0.2552      0.0048     -0.2818      0.0077     -0.0053
        11        -0.3824      0.3041     -0.0238      0.1189      0.1013      0.0570
        12         0.2049      0.3117     -0.0461      0.3623      0.0931      0.1288
        13        -0.0116      0.0013      0.0023     -0.0265     -0.0028     -0.0058
        14         0.0180     -0.0155      0.0010      0.0071     -0.0006     -0.0016
        15         0.2952     -0.2955     -0.0179      0.1097      0.0270     -0.0086
        16         0.0526     -0.2352      0.0204     -0.0746     -0.0253     -0.0362
        17        -0.1050     -0.2016      0.0253     -0.1259     -0.0198     -0.1091
        18        -0.1097      0.0342     -0.0045     -0.0456      0.0339     -0.0313
        19         0.0347     -0.1293      0.0137      0.0135     -0.0172     -0.0480
        20        -0.4224      0.2470      0.0659     -0.0953     -0.0725      0.0568
        21        -0.1008      0.1904      0.0408     -0.0777     -0.1276      0.1173
        22         0.0622     -0.0233      0.0111     -0.0539      0.0213     -0.0625
        23        -0.0640      0.1282     -0.0197     -0.0089     -0.0149      0.0792
        24        -0.2036      0.1297      0.0359     -0.0959     -0.0224      0.0263
        25         0.0987      0.0474     -0.0294      0.0075      0.0254      0.0143
        26        -0.2257      0.2842     -0.0049     -0.1132      0.0053      0.0837
        27         0.0874     -0.0423     -0.0089      0.0160      0.0287     -0.0442
        28        -0.0180      0.0465     -0.0230      0.0544      0.0054      0.0528
        29         1.8614     -1.5881     -0.0004      0.6808     -0.2576     -0.2084
        30        -0.7441      0.3685      0.0186      0.1729      0.2067      0.0449
        31         0.4638     -1.0615      0.0639     -0.1200     -0.1809     -0.2500
        32         1.1901     -1.2042      0.0565      0.4928     -0.2653      0.0042
        33         0.7043     -0.7338      0.0490      0.1303     -0.2378     -0.0456
        34        -0.5529      0.5081     -0.0122     -0.2962      0.0846     -0.0304
        35        -0.2364      0.1770      0.0061     -0.1382      0.0293     -0.0330
        36         0.3569     -0.5053      0.1043      0.0681     -0.1560      0.0066
        37         0.4563     -0.4445     -0.0079      0.0734     -0.0781     -0.0580
        38         0.0054      0.0375      0.0439      0.0786     -0.0445      0.1015
        39         0.1910     -0.1288      0.0347      0.0540      0.0237     -0.1135
        40        -0.4153      0.3641      0.0364     -0.1406     -0.0888     -0.0057
        41         0.4755     -0.3267     -0.0902      0.1091     -0.0091     -0.1101
        42        -0.5083      0.4490      0.0667     -0.1419     -0.1780      0.2279
        43         0.4516     -0.3115     -0.0384      0.2887     -0.0978      0.1492
        44        -0.2718      0.2741      0.0262      0.0480      0.0702     -0.0002
        45        -0.0078     -0.1228     -0.0343      0.0416     -0.0674      0.0845
        46        -0.0297      0.0308     -0.0268      0.0941      0.0368     -0.0274
        47         0.0223     -0.0288     -0.0189      0.0729      0.0008      0.0799
        48        -0.0728      0.1117     -0.0217     -0.1617      0.0177     -0.0313
        49         0.0549     -0.3171      0.0275      0.1305     -0.0103      0.0632
        50        -1.3708      0.9125      0.2202     -0.5187      0.3101     -0.4661
        51         0.2466     -0.2959     -0.0124      0.0784      0.0377     -0.0930
        52         0.6313     -0.3687     -0.0954      0.0770     -0.1596      0.1598
        53        -0.2244      0.2374      0.0465      0.4354      0.2472      0.0102
        54        -0.0152      0.0045     -0.0220      0.0186     -0.0262      0.1129
        55         0.1201     -0.0435     -0.0191     -0.2570     -0.1650     -0.0201
        56        -0.0998      0.0182     -0.0367      0.0777      0.0101     -0.0253
        57         0.0068     -0.0686      0.0515     -0.0316      0.0907      0.0841
        58        -0.4758      0.3201     -0.0617      0.0136     -0.1045     -0.1430
        59         0.4949     -0.4419      0.0025      0.0272     -0.1284      0.0195
        60         0.2918     -0.1051      0.0550     -0.0305     -0.0164      0.0350
 <0|del|b> * <b|rxdel|0> + <0|del|b> * <b|delr+rdel|0>
 Rotatory Strengths (R) in cgs (10**-40 erg-esu-cm/Gauss)
       state          XX          YY          ZZ    R(velocity)    E-M Angle
         1        28.3041    -67.2396     33.4519     -1.8279       90.80
         2       -52.9887     80.5202    -59.9920    -10.8202       91.49
         3       -17.3232     36.1902      2.3592      7.0754       80.32
         4       -11.6688     -7.9816     17.3354     -0.7717       92.33
         5         2.4304     -0.7768     -1.8923     -0.0796       90.00
         6         2.5064     10.4987     -3.1539      3.2837       67.67
         7        -0.8277     -1.7745      1.5294     -0.3576       97.85
         8         7.8965     18.6611     -7.9158      6.2139       73.53
         9       -25.4371     28.5170    -12.4805     -3.1335       90.92
        10        -2.3620     12.6754     12.4626      7.5920       80.81
        11        -2.0248    -22.5971      2.6716     -7.3167      107.45
        12       -12.1732     17.7479    -10.7218     -1.7157       92.23
        13         0.0111      0.1163      0.1167      0.0813       90.00
        14        -0.0141     -0.0013      0.0096     -0.0019       90.00
        15       -15.6626     -6.4496     -1.2057     -7.7727      117.05
        16        -4.8488     -0.5158     -4.1664     -3.1770      132.00
        17        -2.3656      9.3878     -0.2606      2.2538       80.93
        18         0.0222      7.5602      0.5785      2.7203       78.93
        19        -3.5314     -0.2304     -1.8991     -1.8870      171.93
        20       -22.2164     -1.4355     -8.6361    -10.7627      111.82
        21         5.9167      9.4699     -2.9570      4.1432       81.33
        22         0.4185      4.8477     -0.2974      1.6563       66.99
        23         1.6510      0.8456     -0.3992      0.6991       68.56
        24         0.7667     -1.2725      1.2422      0.2455       82.73
        25        -6.1399      3.5673     -7.0624     -3.2117      102.99
        26         0.9739      0.7837      2.7058      1.4878       86.34
        27         0.3477      0.1517     -0.0346      0.1550       54.33
        28        -0.2737      1.1223     -0.2458      0.2009       80.11
        29       -75.0691    -40.4051     50.5563    -21.6393       91.29
        30        12.8949      0.1254     15.9773      9.6659       80.22
        31       -46.0901     12.7264     -9.5477    -14.3038       94.98
        32       -59.3927    145.3742     -1.9014     28.0267       86.52
        33       -56.0109    -23.0300    -47.9657    -42.3355      105.50
        34        -2.7150     51.5104     17.6968     22.1641       73.47
        35         0.6310     14.2813      4.3727      6.4283       70.66
        36       -28.1180     25.3079    -20.2310     -7.6803       93.12
        37        -4.2400    -28.0400    -10.7201    -14.3334      133.98
        38         2.3346      5.1353      1.9363      3.1354       68.95
        39        -3.5456    -10.9747     14.7630      0.0809       90.00
        40       -11.5973     -1.3072     -4.1193     -5.6746      137.77
        41        -3.3218     -0.4156     -8.9852     -4.2409      126.43
        42         4.9173    -27.7960      3.2130     -6.5552      110.17
        43         2.8330     34.8015      3.8083     13.8143       60.41
        44         3.1545     -0.9807     -1.4454      0.2428       85.56
        45         1.2824      8.3566     -1.1159      2.8410       66.75
        46         1.5861     -0.8940     -0.4594      0.0776       90.00
        47         3.7049     -4.5342      0.5193     -0.1033       90.00
        48         1.0827      0.2239     -2.4417     -0.3784       93.40
        49        -2.7077     -3.1041      0.3613     -1.8169      107.53
        50       169.3726   -219.3859     58.1549      2.7139       89.08
        51         0.8749     -7.0429      4.5815     -0.5288       93.55
        52        14.3195    -73.4677    -12.4586    -23.8689      117.68
        53        46.3284    -23.6579      2.9002      8.5236       59.31
        54         3.0990      7.0817     -1.4783      2.9008       65.83
        55        14.3980     -3.6330      0.2096      3.6582       38.73
        56        -3.6738     -1.8405     -1.4107     -2.3083      144.18
        57         0.3814      9.3067     -1.4142      2.7580       76.95
        58       -60.1814     -5.9557    -27.6803    -31.2725      158.93
        59        -4.4680     -0.6849     -3.4001     -2.8510      116.95
        60        -2.4270    -14.3092     -9.6244     -8.7869      115.90
 1/2[<0|r|b>*<b|rxdel|0> + (<0|rxdel|b>*<b|r|0>)*]
 Rotatory Strengths (R) in cgs (10**-40 erg-esu-cm/Gauss)
       state          XX          YY          ZZ     R(length)
         1       -61.4061    110.0722    -48.9292     -0.0877
         2       -10.8507   -190.1303    170.2698    -10.2371
         3        67.2028    -38.9674     -6.8277      7.1359
         4        -2.4607     12.4314    -12.5093     -0.8462
         5        -0.7864      4.3683     -4.2039     -0.2073
         6        10.9307     -2.0689      1.3328      3.3982
         7         0.0638      1.3633     -2.9040     -0.4923
         8        19.6080      7.4909     -7.7240      6.4583
         9       -21.1819    -81.0975     91.7611     -3.5061
        10        29.1645     -3.0144     -3.4932      7.5523
        11       -32.9548     -5.3310     14.2521     -8.0112
        12        58.5795    -68.3766      6.9558     -0.9471
        13         0.3795     -0.0093     -0.1152      0.0850
        14         0.0086     -0.0183      0.0025     -0.0024
        15         1.9714     -6.1587    -21.3465     -8.5113
        16         1.8530    -10.8592     -0.7964     -3.2675
        17        15.1752    -10.1921      0.9421      1.9751
        18         6.9500     -2.0367      3.6932      2.8688
        19        -0.2260     -5.9159     -0.1163     -2.0861
        20         0.4361    -25.8703     -7.6264    -11.0202
        21         5.0283     10.5470     -3.3476      4.0759
        22         3.0980     -0.8393      2.9370      1.7319
        23         0.4884      1.5391      0.0600      0.6959
        24        -0.8173      1.6045     -0.0156      0.2572
        25        -0.7015    -16.4097      6.4863     -3.5416
        26        -3.2197     -2.8356      9.8215      1.2554
        27        -0.0816     -0.1555      0.5618      0.1082
        28         1.3263     -0.4148     -0.2376      0.2246
        29      -277.3847   -136.7043    348.1650    -21.9747
        30       -16.4339     -8.0939     54.3522      9.9414
        31       -46.7802   -140.3335    141.8848    -15.0763
        32       -43.7564   -111.4786    241.1922     28.6524
        33      -125.0958    -89.6436     81.6610    -44.3594
        34        35.6292     -3.7229     37.2836     23.0633
        35        13.9172     -0.5451      7.3755      6.9159
        36       -37.9310    -66.6431     78.3834     -8.7302
        37       -51.3269      1.1808      5.6663    -14.8266
        38         2.6120      8.3459     -0.9458      3.3373
        39        10.3880     -5.7445     -3.8127      0.2770
        40        -5.3064     -7.5873     -2.7814     -5.2250
        41        -8.9343      0.0307     -3.2134     -4.0390
        42       -24.4080     11.2033     -7.0489     -6.7512
        43        29.7406      0.2864     16.2886     15.4385
        44        -3.0864      0.5673      3.3768      0.2859
        45         0.8303     -5.3397     14.5347      3.3417
        46        -0.6275      0.7912      0.1863      0.1167
        47        -5.2636     -0.3479      4.2236     -0.4626
        48        -7.4472      0.7312      5.2460     -0.4900
        49        -1.2632     -5.0105      0.4555     -1.9394
        50      -231.5888    218.5246     25.2886      4.0748
        51        -3.5966      9.1763     -6.8393     -0.4199
        52       -98.1501     12.7910     12.0864    -24.4242
        53        17.6205     21.2365    -11.0680      9.2630
[...]
    30  H    0.000000   0.000000   0.000000   0.000000   0.000000  -0.005402
    31  H    0.000000   0.000000   0.000000   0.000000   0.000000   0.000056
    32  H    0.000000   0.000000   0.000000   0.000000   0.000000   0.000002
    33  H   -0.000008  -0.000001  -0.000003   0.000014  -0.000033   0.000000
    34  H    0.000000   0.000000   0.000000   0.000000   0.000000   0.000074
    35  H    0.000000   0.000000   0.000000   0.000000   0.000000   0.000000
    36  H    0.000000   0.000000   0.000000   0.000000   0.000000   0.000000
    37  H    0.000000   0.000000   0.000000   0.000000   0.000000   0.000000
    38  H    0.000000   0.000000   0.000000   0.000000   0.000000   0.000000
    39  H    0.000001   0.000002  -0.000024   0.000013   0.000001   0.000000
    40  H    0.000000   0.000000   0.000000   0.000000   0.000000   0.000000
    41  H    0.000000   0.000000   0.000000   0.000000   0.000000   0.000000
    42  H    0.000000   0.000000   0.000000   0.000000   0.000000   0.000000
    43  H    0.000000   0.000000   0.000000   0.000000   0.000047   0.000000
    44  H   -0.000095  -0.000008   0.000005   0.000015  -0.000110   0.000000
    45  H   -0.000086  -0.000020   0.000003   0.000005  -0.000002   0.000000
    46  H    0.000015  -0.000006  -0.000004  -0.000008   0.000000   0.000000
    47  H    0.000002  -0.000023   0.000188  -0.000185   0.000000   0.000000
    48  H    0.000003  -0.000017  -0.000616   0.000795   0.000002   0.000000
              31         32         33         34         35         36
     1  O    0.000000   0.000000   0.000215   0.000000   0.000000  -0.000001
     2  C    0.000000   0.000000   0.000008   0.000001   0.000000   0.000128
     3  C   -0.000184  -0.000012  -0.000001  -0.000157   0.000001   0.000000
     4  C    0.000576   0.000092  -0.000050  -0.000032   0.000000   0.000000
     5  C    0.000055   0.000566   0.000437   0.000000   0.000000   0.000000
     6  C   -0.000008  -0.000236   0.000826   0.000007   0.000000   0.000001
     7  C    0.000000   0.000000   0.000002   0.001366   0.000047   0.000000
     8  C    0.000001  -0.000020  -0.000104   0.000666  -0.000021  -0.000002
     9  C   -0.000020  -0.000029   0.000363  -0.000057  -0.000001  -0.000017
    10  C    0.000000  -0.000002  -0.000076  -0.000078  -0.000005  -0.000086
    11  C    0.000000   0.000000   0.000000  -0.000170   0.000842   0.000003
    12  C    0.000000   0.000000  -0.000002   0.000608   0.000299  -0.000117
    13  C    0.000000   0.000000  -0.000016  -0.000059  -0.000093   0.000854
    14  C    0.000000   0.000000   0.000002   0.000007  -0.000009   0.000868
    15  C    0.000000   0.000000   0.000000   0.000000  -0.000045   0.000465
    16  C    0.000000   0.000000   0.000000  -0.000034   0.000372  -0.000085
    17  C    0.000000   0.000000  -0.000009   0.000000   0.000000   0.000014
    18  C    0.000000   0.000000   0.000000   0.000000   0.000000   0.000014
    19  C    0.000000   0.000000   0.000000   0.000000   0.000000  -0.000011
    20  C    0.000000   0.000000   0.000000   0.000000   0.000000  -0.000013
    21  C    0.000000   0.000000   0.000000   0.000000   0.000000   0.000027
    22  C    0.000000   0.000000   0.000000   0.000000   0.000000   0.000357
    23  C    0.000000   0.000000  -0.000137   0.000000   0.000000  -0.000008
    24  C    0.000000   0.000000   0.000112   0.000000   0.000000   0.000000
    25  C    0.000000   0.000000  -0.000008   0.000000   0.000000   0.000000
    26  C    0.000000   0.000000  -0.000001   0.000000   0.000000   0.000000
    27  C    0.000000   0.000000  -0.000003   0.000000   0.000000   0.000000
    28  C    0.000000   0.000000   0.000014   0.000000   0.000000   0.000000
    29  H    0.000000   0.000000  -0.000033   0.000000   0.000000   0.000000
    30  H    0.000056   0.000002   0.000000   0.000074   0.000000   0.000000
    31  H   -0.002273   0.000074   0.000002   0.000000   0.000000   0.000000
    32  H    0.000074  -0.002122   0.000081   0.000000   0.000000   0.000000
    33  H    0.000002   0.000081  -0.006160   0.000000   0.000000   0.000000
    34  H    0.000000   0.000000   0.000000  -0.012424   0.000079   0.000000
    35  H    0.000000   0.000000   0.000000   0.000079  -0.005669   0.000000
    36  H    0.000000   0.000000   0.000000   0.000000   0.000000  -0.008229
    37  H    0.000000   0.000000   0.000000   0.000000   0.000001   0.000115
    38  H    0.000000   0.000000   0.000000   0.000000   0.000064   0.000003
    39  H    0.000000   0.000000   0.000000   0.000000   0.000000  -0.000001
    40  H    0.000000   0.000000   0.000000   0.000000   0.000000   0.000001
    41  H    0.000000   0.000000   0.000000   0.000000   0.000000   0.000000
    42  H    0.000000   0.000000   0.000000   0.000000   0.000000   0.000001
    43  H    0.000000   0.000000  -0.000001   0.000000   0.000000   0.000006
    44  H    0.000000   0.000000   0.000007   0.000000   0.000000   0.000000
    45  H    0.000000   0.000000   0.000000   0.000000   0.000000   0.000000
    46  H    0.000000   0.000000   0.000000   0.000000   0.000000   0.000000
    47  H    0.000000   0.000000   0.000000   0.000000   0.000000   0.000000
    48  H    0.000000   0.000000  -0.000003   0.000001   0.000000  -0.000001
              37         38         39         40         41         42
     1  O    0.000000   0.000000  -0.000003   0.000000   0.000000   0.000000
     2  C    0.000000   0.000000  -0.000053   0.000000   0.000000   0.000001
     3  C    0.000000   0.000000   0.000000   0.000000   0.000000   0.000000
     4  C    0.000000   0.000000   0.000000   0.000000   0.000000   0.000000
     5  C    0.000000   0.000000   0.000000   0.000000   0.000000   0.000000
     6  C    0.000000   0.000000   0.000001   0.000000   0.000000   0.000000
     7  C    0.000000   0.000001   0.000006   0.000000   0.000000   0.000000
     8  C    0.000000   0.000000   0.000003   0.000000   0.000000   0.000000
     9  C    0.000000   0.000000  -0.000025   0.000000   0.000000   0.000000
    10  C   -0.000004   0.000000  -0.000246  -0.000001   0.000000   0.000000
    11  C   -0.000017  -0.000174  -0.000002   0.000000   0.000000   0.000000
    12  C   -0.000018  -0.000003   0.000018   0.000000   0.000000   0.000000
    13  C   -0.000032  -0.000023   0.000013  -0.000002   0.000000   0.000000
    14  C   -0.000168  -0.000014   0.000060   0.000010   0.000000   0.000000
    15  C    0.000482   0.000085   0.000002   0.000003   0.000000   0.000000
    16  C    0.000051   0.000682  -0.000004   0.000000   0.000000   0.000000
    17  C    0.000000   0.000000   0.000106   0.000001   0.000000  -0.000001
    18  C    0.000000   0.000000  -0.000034  -0.000002  -0.000002  -0.000002
    19  C    0.000000   0.000000  -0.000066  -0.000010  -0.000003   0.000000
    20  C    0.000000   0.000000   0.000001   0.000005  -0.000002   0.000004
    21  C    0.000000   0.000000  -0.000002   0.000001  -0.000001  -0.000007
    22  C    0.000000   0.000000  -0.000002   0.000000  -0.000001   0.000018
    23  C    0.000000   0.000000   0.000115   0.000001   0.000000   0.000000
    24  C    0.000000   0.000000  -0.000010   0.000000   0.000000   0.000000
    25  C    0.000000   0.000000   0.000001   0.000000   0.000000   0.000000
    26  C    0.000000   0.000000   0.000002   0.000000   0.000000   0.000000
    27  C    0.000000   0.000000  -0.000024   0.000000   0.000000   0.000000
    28  C    0.000000   0.000000   0.000013   0.000000   0.000000   0.000000
    29  H    0.000000   0.000000   0.000001   0.000000   0.000000   0.000000
    30  H    0.000000   0.000000   0.000000   0.000000   0.000000   0.000000
    31  H    0.000000   0.000000   0.000000   0.000000   0.000000   0.000000
    32  H    0.000000   0.000000   0.000000   0.000000   0.000000   0.000000
    33  H    0.000000   0.000000   0.000000   0.000000   0.000000   0.000000
    34  H    0.000000   0.000000   0.000000   0.000000   0.000000   0.000000
    35  H    0.000001   0.000064   0.000000   0.000000   0.000000   0.000000
    36  H    0.000115   0.000003  -0.000001   0.000001   0.000000   0.000001
    37  H   -0.001824   0.000079   0.000000   0.000000   0.000000   0.000000
    38  H    0.000079  -0.002974   0.000000   0.000000   0.000000   0.000000
    39  H    0.000000   0.000000   0.000071   0.000003   0.000000   0.000000
    40  H    0.000000   0.000000   0.000003  -0.000029  -0.000001   0.000000
    41  H    0.000000   0.000000   0.000000  -0.000001   0.000052   0.000000
    42  H    0.000000   0.000000   0.000000   0.000000   0.000000  -0.000040
    43  H    0.000000   0.000000   0.000000   0.000000   0.000000   0.000000
    44  H    0.000000   0.000000   0.000000   0.000000   0.000000   0.000000
    45  H    0.000000   0.000000   0.000000   0.000000   0.000000   0.000000
    46  H    0.000000   0.000000   0.000000   0.000000   0.000000   0.000000
    47  H    0.000000   0.000000  -0.000001   0.000000   0.000000   0.000000
    48  H    0.000000   0.000000   0.000033   0.000000   0.000000   0.000000
              43         44         45         46         47         48
     1  O   -0.000063   0.000020   0.000000   0.000000   0.000000  -0.000005
     2  C   -0.000003   0.000024   0.000001   0.000000  -0.000001   0.000144
     3  C    0.000000   0.000000   0.000000   0.000000   0.000001  -0.000022
     4  C    0.000000   0.000000   0.000000   0.000000   0.000000   0.000004
     5  C    0.000000   0.000000   0.000000   0.000000  -0.000002   0.000026
     6  C    0.000000  -0.000009  -0.000001   0.000000  -0.000006   0.000146
     7  C    0.000000   0.000000   0.000000   0.000000   0.000000   0.000020
     8  C    0.000000   0.000000   0.000000   0.000000   0.000000  -0.000174
     9  C    0.000000  -0.000002   0.000000   0.000000   0.000002   0.000128
    10  C    0.000028   0.000009   0.000000   0.000000   0.000007  -0.001331
    11  C    0.000000   0.000000   0.000000   0.000000   0.000000  -0.000003
    12  C    0.000000   0.000000   0.000000   0.000000   0.000000  -0.000051
    13  C   -0.000003   0.000001   0.000000   0.000000   0.000000  -0.000046
    14  C    0.000000   0.000000   0.000000   0.000000   0.000000   0.000013
    15  C    0.000000   0.000000   0.000000   0.000000   0.000000   0.000002
    16  C    0.000000   0.000000   0.000000   0.000000   0.000000   0.000000
    17  C    0.000051  -0.000012   0.000000   0.000000   0.000000  -0.000001
    18  C   -0.000005  -0.000001   0.000000   0.000000   0.000000   0.000007
    19  C    0.000001   0.000000   0.000000   0.000000   0.000000   0.000000
    20  C   -0.000002   0.000000   0.000000   0.000000   0.000000   0.000000
    21  C   -0.000035   0.000000   0.000000   0.000000   0.000000   0.000000
    22  C   -0.000010   0.000003   0.000000   0.000000   0.000000  -0.000001
    23  C    0.000006   0.000008   0.000001  -0.000001  -0.000023   0.000712
    24  C   -0.000002   0.000126   0.000081   0.000003   0.000003  -0.000007
    25  C    0.000000  -0.000095  -0.000086   0.000015   0.000002   0.000003
    26  C    0.000000  -0.000008  -0.000020  -0.000006  -0.000023  -0.000017
    27  C    0.000000   0.000005   0.000003  -0.000004   0.000188  -0.000616
    28  C    0.000000   0.000015   0.000005  -0.000008  -0.000185   0.000795
    29  H    0.000047  -0.000110  -0.000002   0.000000   0.000000   0.000002
    30  H    0.000000   0.000000   0.000000   0.000000   0.000000   0.000000
    31  H    0.000000   0.000000   0.000000   0.000000   0.000000   0.000000
    32  H    0.000000   0.000000   0.000000   0.000000   0.000000   0.000000
    33  H   -0.000001   0.000007   0.000000   0.000000   0.000000  -0.000003
    34  H    0.000000   0.000000   0.000000   0.000000   0.000000   0.000001
    35  H    0.000000   0.000000   0.000000   0.000000   0.000000   0.000000
    36  H    0.000006   0.000000   0.000000   0.000000   0.000000  -0.000001
    37  H    0.000000   0.000000   0.000000   0.000000   0.000000   0.000000
    38  H    0.000000   0.000000   0.000000   0.000000   0.000000   0.000000
    39  H    0.000000   0.000000   0.000000   0.000000  -0.000001   0.000033
    40  H    0.000000   0.000000   0.000000   0.000000   0.000000   0.000000
    41  H    0.000000   0.000000   0.000000   0.000000   0.000000   0.000000
    42  H    0.000000   0.000000   0.000000   0.000000   0.000000   0.000000
    43  H    0.000038  -0.000001   0.000000   0.000000   0.000000   0.000000
    44  H   -0.000001   0.000054   0.000007   0.000000   0.000000   0.000000
    45  H    0.000000   0.000007   0.000054   0.000003   0.000000   0.000000
    46  H    0.000000   0.000000   0.000003   0.000023   0.000003   0.000000
    47  H    0.000000   0.000000   0.000000   0.000003   0.000063   0.000009
    48  H    0.000000   0.000000   0.000000   0.000000   0.000009  -0.000714
 Mulliken charges and spin densities:
               1          2
     1  O   -0.247943   0.006974
     2  C   -0.031078  -0.025202
     3  C    0.036460   0.113298
     4  C    0.037563   0.031759
     5  C    0.051025   0.027668
     6  C    0.038643   0.128760
     7  C    0.073523   0.270161
     8  C    0.008171  -0.046129
     9  C    0.043336  -0.083731
    10  C    0.094947   0.406279
    11  C    0.038474   0.118232
    12  C    0.008605  -0.043652
    13  C    0.020490  -0.095125
    14  C    0.040926   0.151259
    15  C    0.043803   0.019913
    16  C    0.038031   0.045454
    17  C   -0.045645   0.001726
    18  C    0.004185  -0.001099
    19  C    0.011090   0.000645
    20  C   -0.009644  -0.000965
    21  C    0.010467   0.000458
    22  C   -0.024446  -0.001242
    23  C    0.003245   0.005797
    24  C   -0.026774   0.000074
    25  C    0.002645   0.000182
    26  C   -0.006671  -0.000293
    27  C    0.002874  -0.000339
    28  C   -0.015622   0.001981
    29  H    0.180065   0.003412
    30  H    0.044277  -0.003959
    31  H    0.052639  -0.001721
    32  H    0.050431  -0.001607
    33  H    0.026374  -0.004536
    34  H    0.052191  -0.010202
    35  H    0.047150  -0.004138
    36  H    0.034008  -0.005715
    37  H    0.050671  -0.001336
    38  H    0.054546  -0.002276
    39  H    0.005153  -0.000024
    40  H    0.026941  -0.000019
    41  H    0.026197   0.000042
    42  H    0.027503  -0.000025
    43  H    0.009396   0.000054
    44  H    0.010142   0.000040
    45  H    0.027698   0.000046
    46  H    0.026507   0.000028
    47  H    0.028441   0.000037
    48  H    0.018988  -0.000945
 Sum of Mulliken charges =   1.00000   1.00000
 Mulliken charges and spin densities with hydrogens summed into heavy atoms:
               1          2
     1  O   -0.067878   0.010386
     2  C   -0.031078  -0.025202
     3  C    0.080737   0.109339
     4  C    0.090201   0.030038
     5  C    0.101457   0.026061
     6  C    0.065017   0.124224
     7  C    0.125714   0.259959
     8  C    0.008171  -0.046129
     9  C    0.043336  -0.083731
    10  C    0.094947   0.406279
    11  C    0.085624   0.114094
    12  C    0.008605  -0.043652
    13  C    0.020490  -0.095125
    14  C    0.074935   0.145544
    15  C    0.094474   0.018577
    16  C    0.092576   0.043178
    17  C   -0.045645   0.001726
    18  C    0.009338  -0.001123
    19  C    0.038031   0.000626
    20  C    0.016554  -0.000923
    21  C    0.037970   0.000432
    22  C   -0.015050  -0.001188
    23  C    0.003245   0.005797
    24  C   -0.016631   0.000114
    25  C    0.030343   0.000229
    26  C    0.019836  -0.000266
    27  C    0.031315  -0.000302
    28  C    0.003366   0.001036
 Electronic spatial extent (au):  <R**2>=           8650.1841
 Charge=              1.0000 electrons
 Dipole moment (field-independent basis, Debye):
    X=              4.3823    Y=              5.8486    Z=              0.9161  Tot=              7.3654
 Quadrupole moment (field-independent basis, Debye-Ang):
   XX=           -103.3791   YY=           -106.2717   ZZ=           -147.1588
   XY=             -0.6142   XZ=              4.9671   YZ=             14.9475
 Traceless Quadrupole moment (field-independent basis, Debye-Ang):
   XX=             15.5574   YY=             12.6648   ZZ=            -28.2222
   XY=             -0.6142   XZ=              4.9671   YZ=             14.9475
 Octapole moment (field-independent basis, Debye-Ang**2):
  XXX=             88.3355  YYY=             99.4740  ZZZ=             -0.6109  XYY=             19.4132
  XXY=             50.4621  XXZ=            -15.2713  XZZ=             -7.0184  YZZ=            -24.0422
  YYZ=             33.6853  XYZ=              5.0973
 Hexadecapole moment (field-independent basis, Debye-Ang**3):
 XXXX=          -4336.5546 YYYY=          -3911.4793 ZZZZ=          -1111.0776 XXXY=             49.6851
 XXXZ=            -33.8116 YYYX=           -125.4330 YYYZ=            215.4036 ZZZX=             51.0525
 ZZZY=             35.5808 XXYY=          -1624.1196 XXZZ=          -1055.1264 YYZZ=           -935.4263
 XXYZ=             92.7392 YYXZ=             77.7756 ZZXY=            -13.4719
 N-N= 2.491640447093D+03 E-N=-7.548871244617D+03  KE= 1.108156064604D+03
 1|1|UNPC-CHSHR-P01|SP|UwB97XD TD-FC|CC-pVDZ|C27H20O1(1+,2)|IBS|10-Jun-
 2024|0||# td=(nstates=60) wb97xd/cc-pvdz scrf=(cpcm,solvent=n,n-DiMeth
 ylFormamide) geom=AllCheck guess=read maxdisk=900GB integral(ultrafine
 grid)||monomer_OHradcat||1,2|O,0,0.9495635126,-0.2307277211,-0.2740301
 682|C,0,2.3532741613,-0.0705179728,-0.1631506547|C,0,3.5366564731,-3.8
 883360191,-3.174981112|C,0,2.7548049212,-4.7341244161,-2.4104329748|C,
 0,1.9626883111,-4.1990275985,-1.3843802077|C,0,1.9751948734,-2.8415439
 265,-1.10012838|C,0,4.3031509186,-1.6444455311,-3.7397045806|C,0,3.541
 1952568,-2.4964607607,-2.9260770734|C,0,2.7730672833,-1.9447512326,-1.
 8489693931|C,0,2.8614677222,-0.5379898001,-1.5574746469|C,0,4.90241499
 15,0.5731420675,-4.5292964351|C,0,4.2361646294,-0.2506526101,-3.594957
 2402|C,0,3.4521711611,0.3268026615,-2.5346582783|C,0,3.279236718,1.732
 5529974,-2.5683898758|C,0,3.906841371,2.5157712475,-3.5275977293|C,0,4
 .7497252834,1.9481668841,-4.4908293241|C,0,2.7114964594,1.3722649457,0
 .2429391976|C,0,4.0427392422,1.744101968,0.4686344129|C,0,4.36120546,3
 .0500401881,0.8253305625|C,0,3.351938919,4.001701545,0.9858570644|C,0,
 2.024587133,3.6323837163,0.786269179|C,0,1.7055644933,2.3247250457,0.4
 137816008|C,0,2.9656414435,-0.9572424952,0.9492271231|C,0,2.2725829312
 ,-1.1102336159,2.1531020566|C,0,2.8188018377,-1.8486303266,3.201107908
 7|C,0,4.0785772188,-2.43032821,3.0680371138|C,0,4.7871751084,-2.263256
 3863,1.8796742215|C,0,4.2341641913,-1.5338277504,0.8288669529|H,0,0.54
 69912699,-0.1166774051,0.5966023847|H,0,4.1518067721,-4.2809051846,-3.
 9857088253|H,0,2.7460648808,-5.8057735516,-2.6087051906|H,0,1.32461931
 34,-4.8570752795,-0.7939629864|H,0,1.3331472225,-2.4608715432,-0.31226
 11232|H,0,4.9149504078,-2.0700703275,-4.5376666327|H,0,5.5197471215,0.
 1052446817,-5.2971940329|H,0,2.6139328085,2.2213225262,-1.8663291669|H
 ,0,3.7352132259,3.5924337,-3.5223398514|H,0,5.2577741862,2.5797127376,
 -5.2194435479|H,0,4.845418964,1.0150858757,0.3490832219|H,0,5.40533513
 92,3.3260427326,0.9807746867|H,0,3.6015981186,5.025925674,1.2672291277
 |H,0,1.2262481902,4.3657492561,0.9109360568|H,0,0.665502844,2.06186619
 05,0.2230791624|H,0,1.2936066169,-0.6500716888,2.3043625074|H,0,2.2544
 652491,-1.9636076376,4.1277728652|H,0,4.5070414344,-3.0084601245,3.888
 1292749|H,0,5.7758986515,-2.709280213,1.7616722705|H,0,4.8053455572,-1
 .4293473127,-0.0955995207||Version=EM64W-G09RevD.01|State=2-A|HF=-1115
 .6473097|S2=0.782577|S2-1=0.|S2A=0.750801|RMSD=9.851e-009|PG=C01 [X(C2
 7H20O1)]||@


 I FIND THAT THE THREE TRULY GREAT TIMES FOR THINKING THOUGHTS
 ARE WHEN I AM STANDING IN THE SHOWER, SITTING ON THE JOHN, OR WALKING.

                                    -- COLIN FLETCHER
 Job cpu time:       0 days  5 hours  4 minutes 35.0 seconds.
 File lengths (MBytes):  RWF=   4211 Int=      0 D2E=      0 Chk=    568 Scr=      1
 Normal termination of Gaussian 09 at Mon Jun 10 23:17:49 2024.
