 Entering Link 1 = C:\G09W\l1.exe PID=     16768.
  
 Copyright (c) 1988,1990,1992,1993,1995,1998,2003,2009,2013,
            Gaussian, Inc.  All Rights Reserved.
  
 This is part of the Gaussian(R) 09 program.  It is based on
 the Gaussian(R) 03 system (copyright 2003, Gaussian, Inc.),
 the Gaussian(R) 98 system (copyright 1998, Gaussian, Inc.),
 the Gaussian(R) 94 system (copyright 1995, Gaussian, Inc.),
 the Gaussian 92(TM) system (copyright 1992, Gaussian, Inc.),
 the Gaussian 90(TM) system (copyright 1990, Gaussian, Inc.),
 the Gaussian 88(TM) system (copyright 1988, Gaussian, Inc.),
 the Gaussian 86(TM) system (copyright 1986, Carnegie Mellon
 University), and the Gaussian 82(TM) system (copyright 1983,
 Carnegie Mellon University). Gaussian is a federally registered
 trademark of Gaussian, Inc.
  
 This software contains proprietary and confidential information,
 including trade secrets, belonging to Gaussian, Inc.
  
 This software is provided under written license and may be
 used, copied, transmitted, or stored only in accord with that
 written license.
  
 The following legend is applicable only to US Government
 contracts under FAR:
  
                    RESTRICTED RIGHTS LEGEND
  
 Use, reproduction and disclosure by the US Government is
 subject to restrictions as set forth in subparagraphs (a)
 and (c) of the Commercial Computer Software - Restricted
 Rights clause in FAR 52.227-19.
  
 Gaussian, Inc.
 340 Quinnipiac St., Bldg. 40, Wallingford CT 06492
  
  
 ---------------------------------------------------------------
 Warning -- This program may not be used in any manner that
 competes with the business of Gaussian, Inc. or will provide
 assistance to any competitor of Gaussian, Inc.  The licensee
 of this program is prohibited from giving any competitor of
 Gaussian, Inc. access to this program.  By using this program,
 the user acknowledges that Gaussian, Inc. is engaged in the
 business of creating and licensing software in the field of
 computational chemistry and represents and warrants to the
 licensee that it is not a competitor of Gaussian, Inc. and that
 it will not use this program in any manner prohibited above.
 ---------------------------------------------------------------
  

 Cite this work as:
 Gaussian 09, Revision D.01,
 M. J. Frisch, G. W. Trucks, H. B. Schlegel, G. E. Scuseria, 
 M. A. Robb, J. R. Cheeseman, G. Scalmani, V. Barone, B. Mennucci, 
 G. A. Petersson, H. Nakatsuji, M. Caricato, X. Li, H. P. Hratchian, 
 A. F. Izmaylov, J. Bloino, G. Zheng, J. L. Sonnenberg, M. Hada, 
 M. Ehara, K. Toyota, R. Fukuda, J. Hasegawa, M. Ishida, T. Nakajima, 
 Y. Honda, O. Kitao, H. Nakai, T. Vreven, J. A. Montgomery, Jr., 
 J. E. Peralta, F. Ogliaro, M. Bearpark, J. J. Heyd, E. Brothers, 
 K. N. Kudin, V. N. Staroverov, T. Keith, R. Kobayashi, J. Normand, 
 K. Raghavachari, A. Rendell, J. C. Burant, S. S. Iyengar, J. Tomasi, 
 M. Cossi, N. Rega, J. M. Millam, M. Klene, J. E. Knox, J. B. Cross, 
 V. Bakken, C. Adamo, J. Jaramillo, R. Gomperts, R. E. Stratmann, 
 O. Yazyev, A. J. Austin, R. Cammi, C. Pomelli, J. W. Ochterski, 
 R. L. Martin, K. Morokuma, V. G. Zakrzewski, G. A. Voth, 
 P. Salvador, J. J. Dannenberg, S. Dapprich, A. D. Daniels, 
 O. Farkas, J. B. Foresman, J. V. Ortiz, J. Cioslowski, 
 and D. J. Fox, Gaussian, Inc., Wallingford CT, 2013.
 
 ******************************************
 Gaussian 09:  EM64W-G09RevD.01 13-Apr-2013
                30-Apr-2024 
 ******************************************
 %nprocshared=15
 Will use up to   15 processors via shared memory.
 %mem=50GB
 %chk=D:\Yaroslav\pink-mystery\monomer-radical-cation\uv1\MONOMER_RADICAL-CATION-
 OPT1.chk
 ----------------------------------------------------------------------
 # td=(nstates=60) wb97xd/cc-pvdz scrf=(cpcm,solvent=n,n-DiMethylFormam
 ide) geom=connectivity
 ----------------------------------------------------------------------
 1/38=1,57=2/1;
 2/12=2,17=6,18=5,40=1/2;
 3/5=16,11=9,16=1,25=1,30=1,70=2101,72=148,74=-58/1,2,8,3;
 4//1;
 5/5=2,38=5,53=148/2;
 8/6=1,10=1,108=60/1;
 9/41=60,42=1,70=2/14;
 6/7=2,8=2,9=2,10=2/1;
 99/5=1,9=1/99;
 -------------
 Molecule Name
 -------------
 Symbolic Z-matrix:
 Charge =  1 Multiplicity = 2
 C                    -2.7101    3.2659   -1.7138 
 C                    -1.3094    3.2434   -1.7754 
 H                     4.4589   -2.9509   -0.2607 
 H                     3.4435   -4.1463   -2.1924 
 C                    -3.3946    2.2145   -1.1229 
 C                     3.4999   -2.623    -0.6634 
 C                     2.9256   -3.2975   -1.7434 
 C                    -0.6149    2.1907   -1.2177 
 C                    -2.7079    1.1367   -0.5564 
 C                     2.8473   -1.5393   -0.09 
 C                     1.6889   -2.8897   -2.2493 
 H                     1.2455   -3.4085   -3.0998 
 C                    -1.2927    1.1293   -0.5601 
 C                    -3.4948   -0.0024    0.0004 
 C                     1.5915   -1.1243   -0.5825 
 C                     1.0227   -1.8185   -1.6719 
 C                     0.8737    0.0007   -0.0003 
 H                     0.0638   -1.4934   -2.0789 
 C                    -2.706    -1.1403    0.5569 
 C                    -1.2908   -1.1308    0.5601 
 C                    -3.3909   -2.2191    1.1237 
 H                     3.2828    1.0395   -0.7732 
 C                     1.5902    1.1265    0.5821 
 C                     2.8455    1.543     0.0897 
 C                    -0.6112   -2.1912    1.2174 
 C                     1.0206    1.8199    1.6716 
 C                    -2.7046   -3.2695    1.7143 
 H                     0.0621    1.4936    2.0785 
 C                    -1.3039   -3.245     1.7753 
 C                     3.497     2.6273    0.6632 
 H                     4.4556    2.9564    0.2606 
 C                     1.6857    2.8917    2.2492 
 C                     2.9219    3.301     1.7433 
 H                     1.2417    3.4099    3.0997 
 H                     3.4389    4.1504    2.1925 
 H                     3.284    -1.0352    0.7727 
 H                    -0.7681    4.0486   -2.2723 
 H                     0.4692    2.1791   -1.3001 
 H                    -4.4859    2.214    -1.105 
 H                    -3.263     4.0984   -2.1509 
 H                    -4.1698    0.3745    0.7879 
 H                     0.4729   -2.1779    1.2993 
 H                    -0.7612   -4.0494    2.2719 
 H                    -4.4822   -2.2202    1.1063 
 H                    -3.2561   -4.1029    2.1516 
 C                    -0.5726   -0.0002   -0.0001 
 H                    -4.1694   -0.3803   -0.7869 
 
                          Input orientation:                          
 ---------------------------------------------------------------------
 Center     Atomic      Atomic             Coordinates (Angstroms)
 Number     Number       Type             X           Y           Z
 ---------------------------------------------------------------------
      1          6           0       -2.710100    3.265900   -1.713800
      2          6           0       -1.309400    3.243400   -1.775400
      3          1           0        4.458900   -2.950900   -0.260700
      4          1           0        3.443500   -4.146300   -2.192400
      5          6           0       -3.394600    2.214500   -1.122900
      6          6           0        3.499900   -2.623000   -0.663400
      7          6           0        2.925600   -3.297500   -1.743400
      8          6           0       -0.614900    2.190700   -1.217700
      9          6           0       -2.707900    1.136700   -0.556400
     10          6           0        2.847300   -1.539300   -0.090000
     11          6           0        1.688900   -2.889700   -2.249300
     12          1           0        1.245500   -3.408500   -3.099800
     13          6           0       -1.292700    1.129300   -0.560100
     14          6           0       -3.494800   -0.002400    0.000400
     15          6           0        1.591500   -1.124300   -0.582500
     16          6           0        1.022700   -1.818500   -1.671900
     17          6           0        0.873700    0.000700   -0.000300
     18          1           0        0.063800   -1.493400   -2.078900
     19          6           0       -2.706000   -1.140300    0.556900
     20          6           0       -1.290800   -1.130800    0.560100
     21          6           0       -3.390900   -2.219100    1.123700
     22          1           0        3.282800    1.039500   -0.773200
     23          6           0        1.590200    1.126500    0.582100
     24          6           0        2.845500    1.543000    0.089700
     25          6           0       -0.611200   -2.191200    1.217400
     26          6           0        1.020600    1.819900    1.671600
     27          6           0       -2.704600   -3.269500    1.714300
     28          1           0        0.062100    1.493600    2.078500
     29          6           0       -1.303900   -3.245000    1.775300
     30          6           0        3.497000    2.627300    0.663200
     31          1           0        4.455600    2.956400    0.260600
     32          6           0        1.685700    2.891700    2.249200
     33          6           0        2.921900    3.301000    1.743300
     34          1           0        1.241700    3.409900    3.099700
     35          1           0        3.438900    4.150400    2.192500
     36          1           0        3.284000   -1.035200    0.772700
     37          1           0       -0.768100    4.048600   -2.272300
     38          1           0        0.469200    2.179100   -1.300100
     39          1           0       -4.485900    2.214000   -1.105000
     40          1           0       -3.263000    4.098400   -2.150900
     41          1           0       -4.169800    0.374500    0.787900
     42          1           0        0.472900   -2.177900    1.299300
     43          1           0       -0.761200   -4.049400    2.271900
     44          1           0       -4.482200   -2.220200    1.106300
     45          1           0       -3.256100   -4.102900    2.151600
     46          6           0       -0.572600   -0.000200   -0.000100
     47          1           0       -4.169400   -0.380300   -0.786900
 ---------------------------------------------------------------------
                    Distance matrix (angstroms):
                    1          2          3          4          5
     1  C    0.000000
     2  C    1.402234   0.000000
     3  H    9.599722   8.598660   0.000000
     4  H    9.645546   8.796114   2.488269   0.000000
     5  C    1.386775   2.415047   9.439397   9.400171   0.000000
     6  C    8.622446   7.666848   1.090581   2.159043   8.434849
     7  C    8.651024   7.792280   2.160912   1.091001   8.409048
     8  C    2.406664   1.378962   7.286655   7.588031   2.781418
     9  C    2.423442   2.807125   8.255842   8.272020   1.397903
    10  C    7.524053   6.556901   2.149188   3.401763   7.356576
    11  C    7.584812   6.843194   3.410451   2.158912   7.291338
    12  H    7.881331   7.247712   4.312288   2.489765   7.553595
    13  C    2.811602   2.438576   7.058227   7.275160   2.431540
    14  C    3.773065   4.297052   8.486647   8.373786   2.487265
    15  C    6.249597   5.377270   3.414968   3.892835   6.025015
    16  C    6.307668   5.574247   3.883463   3.398506   6.006582
    17  C    5.142104   4.293252   4.651173   5.348531   4.937563
    18  H    5.520757   4.941160   4.974642   4.298038   5.159747
    19  C    4.956883   5.158192   7.435223   7.376384   3.814522
    20  C    5.149369   4.958682   6.086504   6.251647   4.295288
    21  C    6.212899   6.525054   8.004465   7.837068   4.970315
    22  H    6.461922   5.191327   4.191558   5.378892   6.789005
    23  C    5.323605   4.294968   5.056179   6.239791   5.379498
    24  C    6.089802   4.861394   4.787586   6.159036   6.392195
    25  C    6.540432   6.243333   5.335526   5.647101   5.712662
    26  C    5.241180   4.397393   6.190010   7.509759   5.240127
    27  C    7.379929   7.519472   7.437598   7.336908   6.212895
    28  H    5.020725   4.449197   6.675125   7.841105   4.766281
    29  C    7.519510   7.396407   6.118959   6.252423   6.525085
    30  C    6.677277   5.424742   5.735430   7.351120   7.131249
    31  H    7.439173   6.120694   5.930258   7.582210   8.005631
    32  C    5.930300   5.029088   6.937306   8.505946   6.135072
    33  C    6.608494   5.503496   6.742747   8.439436   7.020951
    34  H    6.229546   5.504765   7.880510   9.484219   6.383934
    35  H    7.338373   6.254057   7.582022   9.384168   7.838132
    36  H    7.785331   6.774847   2.473502   4.300721   7.665347
    37  H    2.167004   1.090074   8.964433   9.214138   3.403461
    38  H    3.385296   2.126514   6.581410   7.046513   3.868023
    39  H    2.151882   3.405768  10.363324  10.223074   1.091447
    40  H    1.090785   2.165312  10.625122  10.627979   2.150159
    41  H    4.092606   4.794057   9.306574   9.342492   2.763637
    42  H    6.988935   6.482350   4.349635   4.989091   6.333860
    43  H    8.555561   8.358594   5.905100   6.133422   7.595782
    44  H    6.417990   6.944190   9.074463   8.798182   5.081217
    45  H    8.338984   8.554478   8.165018   7.984789   7.116957
    46  C    4.262990   3.770346   5.838710   6.174576   3.758891
    47  H    4.035279   4.721010   9.018450   8.608974   2.728772
                    6          7          8          9         10
     6  C    0.000000
     7  C    1.396843   0.000000
     8  C    6.356928   6.552239   0.000000
     9  C    7.258345   7.266871   2.434930   0.000000
    10  C    1.388913   2.414773   5.212623   6.183749   0.000000
    11  C    2.421968   1.397019   5.672932   6.197553   2.797865
    12  H    3.411066   2.162147   6.193095   6.538891   3.888260
    13  C    6.087647   6.228227   1.420711   1.415224   4.947931
    14  C    7.498933   7.424288   3.819330   1.492242   6.526290
    15  C    2.427887   2.801840   4.032481   4.857740   1.411317
    16  C    2.792993   2.411137   4.354505   4.888243   2.430952
    17  C    3.770999   4.257560   2.914463   3.798368   2.504944
    18  H    3.884124   3.399594   3.843812   4.113120   3.421360
    19  C    6.496209   6.454441   4.314796   2.534595   5.605071
    20  C    5.164728   5.270553   3.827503   2.897637   4.208726
    21  C    7.130216   7.020070   5.712676   3.814527   6.391427
    22  H    3.670571   4.458525   4.088387   5.995410   2.703078
    23  C    4.388277   5.173299   3.038794   4.446341   3.022997
    24  C    4.283801   5.176593   3.755420   5.605602   3.087534
    25  C    4.541476   4.743331   5.013060   4.314793   3.754396
    26  C    5.598081   6.440422   3.340720   4.396869   4.210023
    27  C    6.675870   6.607240   6.540432   4.956883   6.088734
    28  H    6.023527   6.764702   3.436453   3.839658   4.653839
    29  C    5.423157   5.502061   6.243365   5.158230   4.860166
    30  C    5.415305   6.420395   4.542700   6.496930   4.283687
    31  H    5.735577   6.743010   5.336819   7.436029   4.787574
    32  C    6.495112   7.468896   4.219426   5.500467   5.143436
    33  C    6.420285   7.463062   4.744391   6.455034   5.176394
    34  H    7.460313   8.442769   4.855240   5.842418   6.103009
    35  H    7.351111   8.439550   5.648290   7.377126   6.158935
    36  H    2.151768   3.402530   5.437789   6.510493   1.090447
    37  H    8.081747   8.239438   2.141832   3.896960   7.004154
    38  H    5.714079   6.018601   1.087289   3.425442   4.576702
    39  H    9.346902   9.258214   3.872710   2.150075   8.300199
    40  H    9.650217   9.652158   3.394498   3.409140   8.565438
    41  H    8.361553   8.380678   4.467474   2.127262   7.326188
    42  H    3.634974   4.065374   5.157835   4.954562   2.824135
    43  H    5.367269   5.502770   7.151053   6.219691   4.990035
    44  H    8.185842   8.009798   6.309756   4.145056   7.457636
    45  H    7.467119   7.350722   7.611670   5.923445   6.989156
    46  C    4.889203   5.113579   2.506867   2.482240   3.751350
    47  H    7.991440   7.730716   4.407959   2.119057   7.145840
                   11         12         13         14         15
    11  C    0.000000
    12  H    1.090462   0.000000
    13  C    5.281638   5.786550   0.000000
    14  C    6.345738   6.609327   2.538533   0.000000
    15  C    2.429886   3.416736   3.660304   5.241076   0.000000
    16  C    1.387329   2.148636   3.909821   5.148069   1.411467
    17  C    3.751928   4.622530   2.506073   4.368501   1.455960
    18  H    2.149335   2.471085   3.320452   4.382945   2.170096
    19  C    5.500028   5.842135   2.897618   1.492218   4.446009
    20  C    4.457025   5.001560   2.522480   2.538536   3.100521
    21  C    6.134428   6.383481   4.295277   2.487239   5.379035
    22  H    4.489766   5.417413   4.581340   6.900715   2.752979
    23  C    4.914919   5.851618   3.100926   5.241185   2.534245
    24  C    5.143683   6.103299   4.209286   6.526534   3.023054
    25  C    4.218575   4.854624   3.827489   3.819304   3.038059
    26  C    6.164448   7.081879   3.287669   5.148060   3.751694
    27  C    5.929352   6.228818   5.149349   3.773037   5.322936
    28  H    6.371001   7.228126   2.988379   4.382699   4.034028
    29  C    5.027971   5.503887   4.958701   4.297065   4.294174
    30  C    6.495319   7.460583   5.165433   7.499326   4.388303
    31  H    6.937659   7.880925   6.087265   8.487112   5.056283
    32  C    7.325374   8.276358   4.457475   6.345904   4.914840
    33  C    7.468997   8.442945   5.271128   7.424567   5.173257
    34  H    8.276276   9.215443   5.001845   6.609378   5.851489
    35  H    8.506180   9.484535   6.252351   8.374201   6.239870
    36  H    3.887930   4.978382   5.235227   6.900381   2.170037
    37  H    7.360529   7.768377   3.424784   5.386154   5.931444
    38  H    5.299187   5.921388   2.180360   4.707817   3.561876
    39  H    8.092301   8.272888   3.416141   2.667699   6.953563
    40  H    8.565310   8.807981   3.902343   4.636635   7.300866
    41  H    7.362333   7.664905   3.265659   1.103556   6.108762
    42  H    3.818099   4.632857   4.184768   4.707715   2.429508
    43  H    5.271541   5.769988   5.926352   5.386139   4.715825
    44  H    7.056257   7.204851   4.916193   2.667698   6.398662
    45  H    6.729993   6.951532   6.211616   4.636673   6.312415
    46  C    4.303777   4.952791   1.451866   2.922201   2.507213
    47  H    6.538760   6.621227   3.256644   1.103510   5.812339
                   16         17         18         19         20
    16  C    0.000000
    17  C    2.475063   0.000000
    18  H    1.091251   2.684930   0.000000
    19  C    4.396670   3.798237   3.839780   0.000000
    20  C    3.287406   2.505873   2.988435   1.415236   0.000000
    21  C    5.239821   4.937378   4.766365   1.397913   2.431555
    22  H    3.752849   2.735003   4.299116   6.510485   5.235046
    23  C    3.751746   1.456018   4.034191   4.857608   3.660061
    24  C    4.210168   2.504952   4.654074   6.183650   4.947672
    25  C    3.340148   2.914129   3.436298   2.434921   1.420686
    26  C    4.941351   2.475140   5.095064   4.888035   3.909557
    27  C    5.240660   5.141818   5.020651   2.423442   2.811591
    28  H    5.094925   2.684931   5.119194   4.112794   3.320143
    29  C    4.396721   4.292932   4.448996   2.807160   2.438591
    30  C    5.598213   3.771069   6.023798   7.258328   6.087444
    31  H    6.190237   4.651262   6.675469   8.255862   7.058046
    32  C    6.164461   3.751996   6.371194   6.197413   5.281394
    33  C    6.440484   4.257610   6.764926   7.266770   6.227974
    34  H    7.081828   4.622561   7.228257   6.538692   5.786284
    35  H    7.509952   5.348704   7.841469   8.272031   7.275017
    36  H    3.420980   2.734989   4.325651   5.994807   4.580735
    37  H    6.163628   4.923717   5.607426   6.219687   5.926372
    38  H    4.052827   2.568760   3.775995   4.954671   4.184899
    39  H    6.850336   5.902912   5.949207   4.145031   4.916188
    40  H    7.321637   6.207134   6.506997   5.923378   6.211572
    41  H    6.149953   5.118386   5.443433   2.119125   3.256756
    42  H    3.042939   2.568248   3.471043   3.425372   2.180246
    43  H    4.869576   4.923322   5.113044   3.896965   3.424757
    44  H    6.179295   5.902764   5.598201   2.150096   3.416162
    45  H    6.176226   6.206888   5.977320   3.409205   3.902391
    46  C    2.940427   1.446300   2.637434   2.482231   1.451858
    47  H    5.459812   5.118277   4.563796   2.127190   3.265578
                   21         22         23         24         25
    21  C    0.000000
    22  H    7.665179   0.000000
    23  C    6.024760   2.170093   0.000000
    24  C    7.356306   1.090569   1.411279   0.000000
    25  C    2.781419   5.437200   4.031985   5.211980   0.000000
    26  C    6.006251   3.421055   1.411474   2.430914   4.354078
    27  C    1.386779   7.784863   6.249160   7.523503   2.406650
    28  H    5.159360   4.325657   2.170038   3.421269   3.843511
    29  C    2.415082   6.774187   5.376760   6.556196   1.378978
    30  C    8.434620   2.151798   2.427934   1.388906   6.356287
    31  H    9.439190   2.473602   3.415028   2.149262   7.285994
    32  C    7.291015   3.887965   2.429871   2.797779   5.672410
    33  C    8.408737   3.402558   2.801832   2.414704   6.551613
    34  H    7.553224   4.978377   3.416676   3.888135   6.192626
    35  H    9.399948   4.300865   3.892949   3.401827   7.587491
    36  H    6.788160   2.587313   2.752859   2.702940   4.087380
    37  H    7.595786   5.264197   4.716762   4.991511   7.151065
    38  H    6.333983   3.081016   2.430491   2.825415   5.157964
    39  H    5.081191   7.863984   6.399059   7.458349   6.309725
    40  H    7.116893   7.355435   6.313084   6.990288   7.611607
    41  H    2.728774   7.643331   5.812526   7.146139   4.408052
    42  H    3.868008   4.747890   3.561151   4.575747   1.087271
    43  H    3.403481   7.177985   5.930805   7.003229   2.141816
    44  H    1.091439   8.628638   6.953361   8.300020   3.872703
    45  H    2.150221   8.817933   7.300451   8.564878   3.394528
    46  C    3.758891   4.067280   2.507212   3.751391   2.506846
    47  H    2.763628   7.586258   6.108813   7.326413   4.467367
                   26         27         28         29         30
    26  C    0.000000
    27  C    6.307213   0.000000
    28  H    1.091220   5.520362   0.000000
    29  C    5.573802   1.402242   4.940872   0.000000
    30  C    2.793085   8.621885   3.884184   7.666115   0.000000
    31  H    3.883527   9.599143   4.974675   8.597879   1.090554
    32  C    1.387348   7.584276   2.149395   6.842615   2.422006
    33  C    2.411170   8.650423   3.399634   7.791568   1.396864
    34  H    2.148594   7.880800   2.471136   7.247193   3.411066
    35  H    3.398638   9.645008   4.298181   8.795462   2.159159
    36  H    3.752679   6.460808   4.298905   5.190111   3.670322
    37  H    4.870411   8.555560   5.113386   8.358633   5.369202
    38  H    3.043693   6.989053   3.471394   6.482502   3.636345
    39  H    6.179512   6.417963   5.598031   6.944201   8.186821
    40  H    6.176755   8.338917   5.977382   8.554452   7.468661
    41  H    5.459886   4.035315   4.563662   4.721136   7.991901
    42  H    4.052282   3.385310   3.775688   2.126569   5.713121
    43  H    6.163104   2.167018   5.607145   1.090043   8.080749
    44  H    6.850020   2.151873   5.948794   3.405784   9.346776
    45  H    7.321210   1.090843   6.506659   2.165336   9.649626
    46  C    2.940345   4.262970   2.637207   3.770354   4.889312
    47  H    6.149894   4.092569   5.443125   4.794003   8.361946
                   31         32         33         34         35
    31  H    0.000000
    32  C    3.410434   0.000000
    33  C    2.160876   1.397015   0.000000
    34  H    4.312227   1.090421   2.162118   0.000000
    35  H    2.488283   2.158993   1.091123   2.489787   0.000000
    36  H    4.191392   4.489450   4.458230   5.417087   5.378687
    37  H    5.907243   5.272904   5.504548   5.771102   6.135442
    38  H    4.351019   3.819058   4.066532   4.633559   4.990330
    39  H    9.075596   7.056811   8.010611   7.205212   8.799182
    40  H    8.166779   6.731020   7.352117   6.952349   7.986444
    41  H    9.018968   6.539004   7.731067   6.621360   8.609450
    42  H    6.580413   5.298494   6.017731   5.920811   7.045732
    43  H    8.963346   7.359803   8.238509   7.767755   9.213244
    44  H   10.363236   8.092017   9.257976   8.272527  10.222925
    45  H   10.624496   8.564773   9.651535   8.807455  10.627401
    46  C    5.838856   4.303761   5.113599   4.952699   6.174715
    47  H    9.307064   7.362478   8.380956   7.664938   9.342928
                   36         37         38         39         40
    36  H    0.000000
    37  H    7.178897   0.000000
    38  H    4.748823   2.443586   0.000000
    39  H    8.628697   4.307016   4.959062   0.000000
    40  H    8.818418   2.498348   4.282159   2.477974   0.000000
    41  H    7.585949   5.868168   5.397837   2.658336   4.829727
    42  H    3.079830   7.284621   5.073494   7.046924   8.077919
    43  H    5.262760   9.285871   7.284729   8.031626   9.602438
    44  H    7.863166   8.031646   7.047054   4.954997   7.212524
    45  H    7.354254   9.602499   8.078095   7.212564   9.261365
    46  C    4.067162   4.646923   2.743118   4.630054   5.353757
    47  H    7.642933   5.778444   5.322642   2.632822   4.768733
                   41         42         43         44         45
    41  H    0.000000
    42  H    5.322682   0.000000
    43  H    5.778555   2.443658   0.000000
    44  H    2.632763   4.959038   4.307022   0.000000
    45  H    4.768819   4.282229   2.498372   2.478010   0.000000
    46  C    3.701512   2.742971   4.646889   4.630064   5.353796
    47  H    1.746344   5.397643   5.868081   2.658436   4.829767
                   46         47
    46  C    0.000000
    47  H    3.701419   0.000000
 Stoichiometry    C27H20(1+,2)
 Framework group  C1[X(C27H20)]
 Deg. of freedom   135
 Full point group                 C1      NOp   1
 Largest Abelian subgroup         C1      NOp   1
 Largest concise Abelian subgroup C1      NOp   1
                         Standard orientation:                         
 ---------------------------------------------------------------------
 Center     Atomic      Atomic             Coordinates (Angstroms)
 Number     Number       Type             X           Y           Z
 ---------------------------------------------------------------------
      1          6           0        2.710151    3.265867    1.713804
      2          6           0        1.309451    3.243389    1.775404
      3          1           0       -4.458948   -2.950819    0.260704
      4          1           0       -3.443567   -4.146235    2.192404
      5          6           0        3.394634    2.214456    1.122904
      6          6           0       -3.499943   -2.622934    0.663404
      7          6           0       -2.925654   -3.297443    1.743404
      8          6           0        0.614934    2.190700    1.217704
      9          6           0        2.707917    1.136667    0.556404
     10          6           0       -2.847326   -1.539245    0.090004
     11          6           0       -1.688947   -2.889663    2.249304
     12          1           0       -1.245555   -3.408470    3.099804
     13          6           0        1.292717    1.129289    0.560104
     14          6           0        3.494799   -0.002446   -0.000396
     15          6           0       -1.591519   -1.124265    0.582504
     16          6           0       -1.022730   -1.818474    1.671904
     17          6           0       -0.873701    0.000724    0.000304
     18          1           0       -0.063825   -1.493389    2.078904
     19          6           0        2.705981   -1.140333   -0.556896
     20          6           0        1.290781   -1.130811   -0.560096
     21          6           0        3.390864   -2.219144   -1.123696
     22          1           0       -3.282785    1.039562    0.773204
     23          6           0       -1.590183    1.126535   -0.582096
     24          6           0       -2.845476    1.543055   -0.089696
     25          6           0        0.611164   -2.191200   -1.217396
     26          6           0       -1.020572    1.819926   -1.671596
     27          6           0        2.704547   -3.269533   -1.714296
     28          1           0       -0.062077    1.493611   -2.078496
     29          6           0        1.303847   -3.245011   -1.775296
     30          6           0       -3.496959    2.627366   -0.663196
     31          1           0       -4.455554    2.956481   -0.260596
     32          6           0       -1.685655    2.891737   -2.249196
     33          6           0       -2.921848    3.301056   -1.743296
     34          1           0       -1.241647    3.409930   -3.099696
     35          1           0       -3.438835    4.150465   -2.192496
     36          1           0       -3.284018   -1.035138   -0.772696
     37          1           0        0.768163    4.048598    2.272304
     38          1           0       -0.469166    2.179117    1.300104
     39          1           0        4.485934    2.213938    1.105004
     40          1           0        3.263064    4.098358    2.150904
     41          1           0        4.169805    0.374443   -0.787896
     42          1           0       -0.472936   -2.177883   -1.299296
     43          1           0        0.761134   -4.049402   -2.271896
     44          1           0        4.482163   -2.220262   -1.106296
     45          1           0        3.256033   -4.102942   -2.151596
     46          6           0        0.572599   -0.000199    0.000104
     47          1           0        4.169393   -0.380357    0.786904
 ---------------------------------------------------------------------
 Rotational constants (GHZ):      0.2159635      0.2033023      0.1373527
 Standard basis: CC-pVDZ (5D, 7F)
 There are   505 symmetry adapted cartesian basis functions of A   symmetry.
 There are   478 symmetry adapted basis functions of A   symmetry.
   478 basis functions,  1031 primitive gaussians,   505 cartesian basis functions
    91 alpha electrons       90 beta electrons
       nuclear repulsion energy      2266.6069245595 Hartrees.
 NAtoms=   47 NActive=   47 NUniq=   47 SFac= 1.00D+00 NAtFMM=   60 NAOKFM=F Big=F
 Integral buffers will be    131072 words long.
 Raffenetti 2 integral format.
 Two-electron integral symmetry is turned on.
 Nuclear repulsion after empirical dispersion term =     2266.5660637928 Hartrees.
 ------------------------------------------------------------------------------
 Polarizable Continuum Model (PCM)
 =================================
 Model                : C-PCM.
 Atomic radii         : UFF (Universal Force Field).
 Polarization charges : Total charges.
 Charge compensation  : None.
 Solution method      : On-the-fly selection.
 Cavity type          : Scaled VdW (van der Waals Surface) (Alpha=1.100).
 Cavity algorithm     : GePol (No added spheres)
                        Default sphere list used, NSphG=   47.
                        Lebedev-Laikov grids with approx.  5.0 points / Ang**2.
                        Smoothing algorithm: Karplus/York (Gamma=1.0000).
                        Polarization charges: spherical gaussians, with
                                              point-specific exponents (IZeta= 3).
                        Self-potential: point-specific (ISelfS= 7).
                        Self-field    : sphere-specific E.n sum rule (ISelfD= 2).
 Solvent              : n,n-DiMethylFormamide, Eps=  37.219000 Eps(inf)=   2.046330
 ------------------------------------------------------------------------------
 One-electron integrals computed using PRISM.
 NBasis=   478 RedAO= T EigKep=  1.61D-04  NBF=   478
 NBsUse=   478 1.00D-06 EigRej= -1.00D+00 NBFU=   478
 ExpMin= 1.22D-01 ExpMax= 6.67D+03 ExpMxC= 2.28D+02 IAcc=1 IRadAn=         1 AccDes= 0.00D+00
 Harris functional with IExCor= 4639 and IRadAn=       1 diagonalized for initial guess.
 HarFok:  IExCor= 4639 AccDes= 0.00D+00 IRadAn=         1 IDoV= 1 UseB2=F ITyADJ=14
 ICtDFT=  3500011 ScaDFX=  1.000000  1.000000  1.000000  1.000000
 FoFCou: FMM=F IPFlag=           0 FMFlag=      100000 FMFlg1=           0
         NFxFlg=           0 DoJE=T BraDBF=F KetDBF=T FulRan=T
         wScrn=  0.000000 ICntrl=     500 IOpCl=  0 I1Cent=   200000004 NGrid=           0
         NMat0=    1 NMatS0=      1 NMatT0=    0 NMatD0=    1 NMtDS0=    0 NMtDT0=    0
 Petite list used in FoFCou.
 Initial guess <Sx>= 0.0000 <Sy>= 0.0000 <Sz>= 0.5000 <S**2>= 0.7500 S= 0.5000
 Requested convergence on RMS density matrix=1.00D-08 within 128 cycles.
 Requested convergence on MAX density matrix=1.00D-06.
 Requested convergence on             energy=1.00D-06.
 No special actions if energy rises.
 Inv3:  Mode=1 IEnd=    33067200.
 Iteration    1 A*A^-1 deviation from unit magnitude is 5.55D-15 for     59.
 Iteration    1 A*A^-1 deviation from orthogonality  is 3.65D-15 for   2291   1037.
 Iteration    1 A^-1*A deviation from unit magnitude is 5.11D-15 for   1291.
 Iteration    1 A^-1*A deviation from orthogonality  is 2.06D-15 for   1556    778.
 Restarting incremental Fock formation.
 Error on total polarization charges =  0.01279
 SCF Done:  E(UwB97XD) =  -1040.45380661     A.U. after   22 cycles
            NFock= 22  Conv=0.34D-08     -V/T= 2.0069
 <Sx>= 0.0000 <Sy>= 0.0000 <Sz>= 0.5000 <S**2>= 0.7729 S= 0.5114
 <L.S>= 0.000000000000E+00
 Annihilation of the first spin contaminant:
 S**2 before annihilation     0.7729,   after     0.7505
 DoSCS=F DFT=T ScalE2(SS,OS)=  1.000000  1.000000
 ExpMin= 1.22D-01 ExpMax= 6.67D+03 ExpMxC= 2.28D+02 IAcc=3 IRadAn=         5 AccDes= 0.00D+00
 HarFok:  IExCor=  205 AccDes= 0.00D+00 IRadAn=         5 IDoV=-2 UseB2=F ITyADJ=14
 ICtDFT= 12500011 ScaDFX=  1.000000  1.000000  1.000000  1.000000
 Range of M.O.s used for correlation:    28   478
 NBasis=   478 NAE=    91 NBE=    90 NFC=    27 NFV=     0
 NROrb=    451 NOA=    64 NOB=    63 NVA=   387 NVB=   388

 **** Warning!!: The largest alpha MO coefficient is  0.16154529D+02


 **** Warning!!: The largest beta MO coefficient is  0.15789093D+02

 Would need an additional         36570900000 words for in-memory AO integral storage.
 NEqPCM:  Using non-equilibrium solvation (IEInf=1, Eps=  37.2190, EpsInf=   2.0463)
 Inv3:  Mode=1 IEnd=    33067200.
 Iteration    1 A*A^-1 deviation from unit magnitude is 5.55D-15 for     59.
 Iteration    1 A*A^-1 deviation from orthogonality  is 3.65D-15 for   2291   1037.
 Iteration    1 A^-1*A deviation from unit magnitude is 5.11D-15 for   1291.
 Iteration    1 A^-1*A deviation from orthogonality  is 2.06D-15 for   1556    778.
 Orbital symmetries:
 Alpha Orbitals:
       Occupied  (A) (A) (A) (A) (A) (A) (A) (A) (A) (A) (A) (A)
                 (A) (A) (A) (A) (A) (A) (A) (A) (A) (A) (A) (A)
                 (A) (A) (A) (A) (A) (A) (A) (A) (A) (A) (A) (A)
                 (A) (A) (A) (A) (A) (A) (A) (A) (A) (A) (A) (A)
                 (A) (A) (A) (A) (A) (A) (A) (A) (A) (A) (A) (A)
                 (A) (A) (A) (A) (A) (A) (A) (A) (A) (A) (A) (A)
                 (A) (A) (A) (A) (A) (A) (A) (A) (A) (A) (A) (A)
                 (A) (A) (A) (A) (A) (A) (A)
       Virtual   (A) (A) (A) (A) (A) (A) (A) (A) (A) (A) (A) (A)
                 (A) (A) (A) (A) (A) (A) (A) (A) (A) (A) (A) (A)
                 (A) (A) (A) (A) (A) (A) (A) (A) (A) (A) (A) (A)
                 (A) (A) (A) (A) (A) (A) (A) (A) (A) (A) (A) (A)
                 (A) (A) (A) (A) (A) (A) (A) (A) (A) (A) (A) (A)
                 (A) (A) (A) (A) (A) (A) (A) (A) (A) (A) (A) (A)
                 (A) (A) (A) (A) (A) (A) (A) (A) (A) (A) (A) (A)
                 (A) (A) (A) (A) (A) (A) (A) (A) (A) (A) (A) (A)
                 (A) (A) (A) (A) (A) (A) (A) (A) (A) (A) (A) (A)
                 (A) (A) (A) (A) (A) (A) (A) (A) (A) (A) (A) (A)
                 (A) (A) (A) (A) (A) (A) (A) (A) (A) (A) (A) (A)
                 (A) (A) (A) (A) (A) (A) (A) (A) (A) (A) (A) (A)
                 (A) (A) (A) (A) (A) (A) (A) (A) (A) (A) (A) (A)
                 (A) (A) (A) (A) (A) (A) (A) (A) (A) (A) (A) (A)
                 (A) (A) (A) (A) (A) (A) (A) (A) (A) (A) (A) (A)
                 (A) (A) (A) (A) (A) (A) (A) (A) (A) (A) (A) (A)
                 (A) (A) (A) (A) (A) (A) (A) (A) (A) (A) (A) (A)
                 (A) (A) (A) (A) (A) (A) (A) (A) (A) (A) (A) (A)
                 (A) (A) (A) (A) (A) (A) (A) (A) (A) (A) (A) (A)
                 (A) (A) (A) (A) (A) (A) (A) (A) (A) (A) (A) (A)
                 (A) (A) (A) (A) (A) (A) (A) (A) (A) (A) (A) (A)
                 (A) (A) (A) (A) (A) (A) (A) (A) (A) (A) (A) (A)
                 (A) (A) (A) (A) (A) (A) (A) (A) (A) (A) (A) (A)
                 (A) (A) (A) (A) (A) (A) (A) (A) (A) (A) (A) (A)
                 (A) (A) (A) (A) (A) (A) (A) (A) (A) (A) (A) (A)
                 (A) (A) (A) (A) (A) (A) (A) (A) (A) (A) (A) (A)
                 (A) (A) (A) (A) (A) (A) (A) (A) (A) (A) (A) (A)
                 (A) (A) (A) (A) (A) (A) (A) (A) (A) (A) (A) (A)
                 (A) (A) (A) (A) (A) (A) (A) (A) (A) (A) (A) (A)
                 (A) (A) (A) (A) (A) (A) (A) (A) (A) (A) (A) (A)
                 (A) (A) (A) (A) (A) (A) (A) (A) (A) (A) (A) (A)
                 (A) (A) (A) (A) (A) (A) (A) (A) (A) (A) (A) (A)
                 (A) (A) (A)
 Beta  Orbitals:
       Occupied  (A) (A) (A) (A) (A) (A) (A) (A) (A) (A) (A) (A)
                 (A) (A) (A) (A) (A) (A) (A) (A) (A) (A) (A) (A)
                 (A) (A) (A) (A) (A) (A) (A) (A) (A) (A) (A) (A)
                 (A) (A) (A) (A) (A) (A) (A) (A) (A) (A) (A) (A)
                 (A) (A) (A) (A) (A) (A) (A) (A) (A) (A) (A) (A)
                 (A) (A) (A) (A) (A) (A) (A) (A) (A) (A) (A) (A)
                 (A) (A) (A) (A) (A) (A) (A) (A) (A) (A) (A) (A)
                 (A) (A) (A) (A) (A) (A)
       Virtual   (A) (A) (A) (A) (A) (A) (A) (A) (A) (A) (A) (A)
                 (A) (A) (A) (A) (A) (A) (A) (A) (A) (A) (A) (A)
                 (A) (A) (A) (A) (A) (A) (A) (A) (A) (A) (A) (A)
                 (A) (A) (A) (A) (A) (A) (A) (A) (A) (A) (A) (A)
                 (A) (A) (A) (A) (A) (A) (A) (A) (A) (A) (A) (A)
                 (A) (A) (A) (A) (A) (A) (A) (A) (A) (A) (A) (A)
                 (A) (A) (A) (A) (A) (A) (A) (A) (A) (A) (A) (A)
                 (A) (A) (A) (A) (A) (A) (A) (A) (A) (A) (A) (A)
                 (A) (A) (A) (A) (A) (A) (A) (A) (A) (A) (A) (A)
                 (A) (A) (A) (A) (A) (A) (A) (A) (A) (A) (A) (A)
                 (A) (A) (A) (A) (A) (A) (A) (A) (A) (A) (A) (A)
                 (A) (A) (A) (A) (A) (A) (A) (A) (A) (A) (A) (A)
                 (A) (A) (A) (A) (A) (A) (A) (A) (A) (A) (A) (A)
                 (A) (A) (A) (A) (A) (A) (A) (A) (A) (A) (A) (A)
                 (A) (A) (A) (A) (A) (A) (A) (A) (A) (A) (A) (A)
                 (A) (A) (A) (A) (A) (A) (A) (A) (A) (A) (A) (A)
                 (A) (A) (A) (A) (A) (A) (A) (A) (A) (A) (A) (A)
                 (A) (A) (A) (A) (A) (A) (A) (A) (A) (A) (A) (A)
                 (A) (A) (A) (A) (A) (A) (A) (A) (A) (A) (A) (A)
                 (A) (A) (A) (A) (A) (A) (A) (A) (A) (A) (A) (A)
                 (A) (A) (A) (A) (A) (A) (A) (A) (A) (A) (A) (A)
                 (A) (A) (A) (A) (A) (A) (A) (A) (A) (A) (A) (A)
                 (A) (A) (A) (A) (A) (A) (A) (A) (A) (A) (A) (A)
                 (A) (A) (A) (A) (A) (A) (A) (A) (A) (A) (A) (A)
                 (A) (A) (A) (A) (A) (A) (A) (A) (A) (A) (A) (A)
                 (A) (A) (A) (A) (A) (A) (A) (A) (A) (A) (A) (A)
                 (A) (A) (A) (A) (A) (A) (A) (A) (A) (A) (A) (A)
                 (A) (A) (A) (A) (A) (A) (A) (A) (A) (A) (A) (A)
                 (A) (A) (A) (A) (A) (A) (A) (A) (A) (A) (A) (A)
                 (A) (A) (A) (A) (A) (A) (A) (A) (A) (A) (A) (A)
                 (A) (A) (A) (A) (A) (A) (A) (A) (A) (A) (A) (A)
                 (A) (A) (A) (A) (A) (A) (A) (A) (A) (A) (A) (A)
                 (A) (A) (A) (A)
   240 initial guesses have been made.
 Convergence on wavefunction:    0.001000000000000
 Iteration     1 Dimension   240 NMult     0 NNew    240
 CISAX will form   240 AO SS matrices at one time.
 New state      5 was old state      6
 New state      6 was old state      5
 New state      9 was old state     12
 New state     10 was old state      9
 New state     11 was old state     10
 New state     12 was old state     11
 New state     14 was old state     20
 New state     16 was old state     14
 New state     17 was old state     16
 New state     18 was old state     22
 New state     20 was old state     18
 New state     21 was old state     30
 New state     22 was old state     51
 New state     23 was old state     96
 New state     24 was old state     98
 New state     25 was old state     26
 New state     26 was old state    117
 New state     27 was old state     23
 New state     28 was old state     17
 New state     29 was old state     21
 New state     30 was old state     25
 New state     31 was old state     28
 New state     32 was old state     31
 New state     33 was old state     27
 New state     34 was old state     24
 New state     35 was old state     29
 New state     36 was old state     32
 New state     37 was old state    101
 New state     38 was old state     33
 New state     39 was old state     34
 New state     40 was old state     43
 New state     41 was old state     35
 New state     42 was old state     86
 New state     43 was old state     38
 New state     44 was old state     39
 New state     45 was old state     37
 New state     46 was old state     73
 New state     47 was old state     48
 New state     48 was old state     50
 New state     49 was old state     42
 New state     50 was old state     91
 New state     51 was old state     78
 New state     52 was old state     89
 New state     53 was old state    139
 New state     54 was old state     41
 New state     55 was old state     45
 New state     56 was old state     53
 New state     57 was old state     59
 New state     58 was old state     56
 New state     59 was old state     40
 New state     60 was old state     47
 Iteration     2 Dimension   360 NMult   240 NNew    120
 New state     11 was old state     12
 New state     12 was old state     11
 New state     17 was old state     20
 New state     18 was old state     21
 New state     19 was old state     18
 New state     20 was old state     23
 New state     21 was old state     17
 New state     22 was old state     19
 New state     23 was old state     24
 New state     24 was old state     22
 New state     25 was old state     26
 New state     26 was old state     25
 New state     30 was old state     32
 New state     31 was old state     30
 New state     32 was old state     31
 New state     35 was old state     36
 New state     36 was old state     35
 New state     40 was old state     41
 New state     41 was old state     43
 New state     42 was old state     47
 New state     43 was old state     40
 New state     44 was old state     45
 New state     45 was old state     44
 New state     46 was old state     42
 New state     47 was old state     46
 New state     48 was old state     50
 New state     49 was old state     48
 New state     50 was old state     53
 New state     51 was old state     49
 New state     53 was old state     51
 New state     55 was old state     56
 New state     56 was old state     55
 New state     57 was old state     58
 New state     58 was old state     59
 New state     59 was old state     57
 Iteration     3 Dimension   480 NMult   360 NNew    120
 Iteration     4 Dimension   600 NMult   480 NNew    120
 Iteration     5 Dimension   672 NMult   600 NNew     72
 Iteration     6 Dimension   696 NMult   672 NNew     24
 Iteration     7 Dimension   708 NMult   696 NNew     12
 Iteration     8 Dimension   712 NMult   708 NNew      4
 Iteration     9 Dimension   716 NMult   712 NNew      4
 Iteration    10 Dimension   718 NMult   716 NNew      2
 Iteration    11 Dimension   720 NMult   718 NNew      2
 ***********************************************************************
 Excited states from <AA,BB:AA,BB> singles matrix:
 ***********************************************************************
 
 ExtSpn:  IState=     1 X2= 1.023 Y2= 0.023 X2-Y2-1=-9.99D-16
          S2Grnd=  0.773 Ra=  0.019 Rb=  0.008 T=  0.002 S2Ext=  0.030 S2=  0.803
 ExtSpn:  IState=     2 X2= 1.021 Y2= 0.021 X2-Y2-1= 4.44D-16
          S2Grnd=  0.773 Ra=  0.083 Rb=  0.141 T=  0.209 S2Ext=  0.433 S2=  1.206
 ExtSpn:  IState=     3 X2= 1.008 Y2= 0.008 X2-Y2-1= 6.66D-16
          S2Grnd=  0.773 Ra=  0.078 Rb=  0.196 T=  0.243 S2Ext=  0.518 S2=  1.291
 ExtSpn:  IState=     4 X2= 1.022 Y2= 0.022 X2-Y2-1=-6.66D-16
          S2Grnd=  0.773 Ra=  0.152 Rb=  0.152 T=  0.288 S2Ext=  0.591 S2=  1.364
 ExtSpn:  IState=     5 X2= 1.009 Y2= 0.009 X2-Y2-1=-1.22D-15
          S2Grnd=  0.773 Ra=  0.147 Rb=  0.231 T=  0.349 S2Ext=  0.728 S2=  1.500
 ExtSpn:  IState=     6 X2= 1.005 Y2= 0.005 X2-Y2-1=-2.33D-15
          S2Grnd=  0.773 Ra=  0.065 Rb=  0.094 T=  0.144 S2Ext=  0.303 S2=  1.076
 ExtSpn:  IState=     7 X2= 1.006 Y2= 0.006 X2-Y2-1=-4.44D-16
          S2Grnd=  0.773 Ra=  0.128 Rb=  0.120 T=  0.223 S2Ext=  0.471 S2=  1.244
 ExtSpn:  IState=     8 X2= 1.019 Y2= 0.019 X2-Y2-1= 2.00D-15
          S2Grnd=  0.773 Ra=  0.306 Rb=  0.132 T=  0.319 S2Ext=  0.757 S2=  1.530
 ExtSpn:  IState=     9 X2= 1.010 Y2= 0.010 X2-Y2-1= 1.33D-15
          S2Grnd=  0.773 Ra=  0.729 Rb=  0.048 T=  0.052 S2Ext=  0.829 S2=  1.602
 ExtSpn:  IState=    10 X2= 1.008 Y2= 0.008 X2-Y2-1=-2.22D-16
          S2Grnd=  0.773 Ra=  0.556 Rb=  0.034 T=  0.035 S2Ext=  0.625 S2=  1.398
 ExtSpn:  IState=    11 X2= 1.020 Y2= 0.020 X2-Y2-1=-6.66D-16
          S2Grnd=  0.773 Ra=  0.607 Rb=  0.146 T=  0.475 S2Ext=  1.228 S2=  2.000
 ExtSpn:  IState=    12 X2= 1.025 Y2= 0.025 X2-Y2-1= 2.22D-16
          S2Grnd=  0.773 Ra=  0.363 Rb=  0.291 T=  0.561 S2Ext=  1.215 S2=  1.988
 ExtSpn:  IState=    13 X2= 1.008 Y2= 0.008 X2-Y2-1=-6.66D-16
          S2Grnd=  0.773 Ra=  0.789 Rb=  0.084 T=  0.054 S2Ext=  0.927 S2=  1.700
 ExtSpn:  IState=    14 X2= 1.006 Y2= 0.006 X2-Y2-1=-1.67D-15
          S2Grnd=  0.773 Ra=  0.843 Rb=  0.063 T=  0.276 S2Ext=  1.183 S2=  1.955
 ExtSpn:  IState=    15 X2= 1.010 Y2= 0.010 X2-Y2-1= 2.66D-15
          S2Grnd=  0.773 Ra=  0.666 Rb=  0.207 T=  0.129 S2Ext=  1.002 S2=  1.775
 ExtSpn:  IState=    16 X2= 1.005 Y2= 0.005 X2-Y2-1=-2.22D-16
          S2Grnd=  0.773 Ra=  0.506 Rb=  0.374 T= -0.236 S2Ext=  0.644 S2=  1.417
 ExtSpn:  IState=    17 X2= 1.028 Y2= 0.028 X2-Y2-1= 2.22D-16
          S2Grnd=  0.773 Ra=  0.391 Rb=  0.391 T=  0.701 S2Ext=  1.484 S2=  2.257
 ExtSpn:  IState=    18 X2= 1.018 Y2= 0.018 X2-Y2-1=-2.33D-15
          S2Grnd=  0.773 Ra=  0.337 Rb=  0.320 T=  0.557 S2Ext=  1.215 S2=  1.988
 ExtSpn:  IState=    19 X2= 1.012 Y2= 0.012 X2-Y2-1= 3.55D-15
          S2Grnd=  0.773 Ra=  0.611 Rb=  0.225 T=  0.092 S2Ext=  0.928 S2=  1.701
 ExtSpn:  IState=    20 X2= 1.011 Y2= 0.011 X2-Y2-1= 6.66D-16
          S2Grnd=  0.773 Ra=  0.295 Rb=  0.454 T=  0.531 S2Ext=  1.280 S2=  2.053
 ExtSpn:  IState=    21 X2= 1.004 Y2= 0.004 X2-Y2-1= 6.66D-16
          S2Grnd=  0.773 Ra=  0.102 Rb=  0.622 T= -0.052 S2Ext=  0.672 S2=  1.445
 ExtSpn:  IState=    22 X2= 1.004 Y2= 0.004 X2-Y2-1= 2.00D-15
          S2Grnd=  0.773 Ra=  0.203 Rb=  0.327 T=  0.155 S2Ext=  0.685 S2=  1.458
 ExtSpn:  IState=    23 X2= 1.007 Y2= 0.007 X2-Y2-1=-1.22D-15
          S2Grnd=  0.773 Ra=  0.233 Rb=  0.576 T=  0.277 S2Ext=  1.087 S2=  1.859
 ExtSpn:  IState=    24 X2= 1.002 Y2= 0.002 X2-Y2-1=-1.11D-16
          S2Grnd=  0.773 Ra=  0.125 Rb=  0.711 T= -0.223 S2Ext=  0.613 S2=  1.385
 ExtSpn:  IState=    25 X2= 1.005 Y2= 0.005 X2-Y2-1=-1.22D-15
          S2Grnd=  0.773 Ra=  0.412 Rb=  0.362 T=  0.638 S2Ext=  1.412 S2=  2.185
 ExtSpn:  IState=    26 X2= 1.004 Y2= 0.004 X2-Y2-1= 8.88D-16
          S2Grnd=  0.773 Ra=  0.129 Rb=  0.312 T=  0.175 S2Ext=  0.616 S2=  1.388
 ExtSpn:  IState=    27 X2= 1.004 Y2= 0.004 X2-Y2-1=-1.44D-15
          S2Grnd=  0.773 Ra=  0.207 Rb=  0.147 T=  0.152 S2Ext=  0.506 S2=  1.279
 ExtSpn:  IState=    28 X2= 1.002 Y2= 0.002 X2-Y2-1=-2.22D-16
          S2Grnd=  0.773 Ra=  0.108 Rb=  0.397 T= -0.005 S2Ext=  0.500 S2=  1.273
 ExtSpn:  IState=    29 X2= 1.002 Y2= 0.002 X2-Y2-1= 3.55D-15
          S2Grnd=  0.773 Ra=  0.069 Rb=  0.320 T= -0.026 S2Ext=  0.362 S2=  1.135
 ExtSpn:  IState=    30 X2= 1.002 Y2= 0.002 X2-Y2-1= 1.78D-15
          S2Grnd=  0.773 Ra=  0.179 Rb=  0.221 T=  0.215 S2Ext=  0.615 S2=  1.387
 ExtSpn:  IState=    31 X2= 1.002 Y2= 0.002 X2-Y2-1= 2.22D-15
          S2Grnd=  0.773 Ra=  0.162 Rb=  0.384 T=  0.019 S2Ext=  0.565 S2=  1.337
 ExtSpn:  IState=    32 X2= 1.003 Y2= 0.003 X2-Y2-1= 8.88D-16
          S2Grnd=  0.773 Ra=  0.085 Rb=  0.433 T= -0.067 S2Ext=  0.451 S2=  1.223
 ExtSpn:  IState=    33 X2= 1.004 Y2= 0.004 X2-Y2-1= 2.22D-16
          S2Grnd=  0.773 Ra=  0.261 Rb=  0.257 T=  0.230 S2Ext=  0.748 S2=  1.521
 ExtSpn:  IState=    34 X2= 1.004 Y2= 0.004 X2-Y2-1=-2.22D-15
          S2Grnd=  0.773 Ra=  0.286 Rb=  0.227 T=  0.272 S2Ext=  0.785 S2=  1.558
 ExtSpn:  IState=    35 X2= 1.004 Y2= 0.004 X2-Y2-1=-6.66D-16
          S2Grnd=  0.773 Ra=  0.477 Rb=  0.304 T=  0.142 S2Ext=  0.924 S2=  1.696
 ExtSpn:  IState=    36 X2= 1.004 Y2= 0.004 X2-Y2-1=-5.55D-16
          S2Grnd=  0.773 Ra=  0.227 Rb=  0.352 T=  0.182 S2Ext=  0.760 S2=  1.533
 ExtSpn:  IState=    37 X2= 1.003 Y2= 0.003 X2-Y2-1= 2.89D-15
          S2Grnd=  0.773 Ra=  0.143 Rb=  0.241 T=  0.313 S2Ext=  0.697 S2=  1.470
 ExtSpn:  IState=    38 X2= 1.001 Y2= 0.001 X2-Y2-1=-2.22D-15
          S2Grnd=  0.773 Ra=  0.095 Rb=  0.178 T=  0.232 S2Ext=  0.505 S2=  1.278
 ExtSpn:  IState=    39 X2= 1.004 Y2= 0.004 X2-Y2-1= 6.66D-16
          S2Grnd=  0.773 Ra=  0.622 Rb=  0.140 T=  0.124 S2Ext=  0.885 S2=  1.658
 ExtSpn:  IState=    40 X2= 1.005 Y2= 0.005 X2-Y2-1=-9.99D-16
          S2Grnd=  0.773 Ra=  0.168 Rb=  0.615 T=  0.172 S2Ext=  0.955 S2=  1.727
 ExtSpn:  IState=    41 X2= 1.002 Y2= 0.002 X2-Y2-1= 1.55D-15
          S2Grnd=  0.773 Ra=  0.717 Rb=  0.163 T=  0.307 S2Ext=  1.187 S2=  1.960
 ExtSpn:  IState=    42 X2= 1.002 Y2= 0.002 X2-Y2-1=-3.33D-16
          S2Grnd=  0.773 Ra=  0.067 Rb=  0.284 T=  0.056 S2Ext=  0.408 S2=  1.181
 ExtSpn:  IState=    43 X2= 1.002 Y2= 0.002 X2-Y2-1= 4.44D-16
          S2Grnd=  0.773 Ra=  0.683 Rb=  0.248 T=  0.363 S2Ext=  1.294 S2=  2.067
 ExtSpn:  IState=    44 X2= 1.001 Y2= 0.001 X2-Y2-1= 0.00D+00
          S2Grnd=  0.773 Ra=  0.188 Rb=  0.180 T=  0.184 S2Ext=  0.552 S2=  1.325
 ExtSpn:  IState=    45 X2= 1.002 Y2= 0.002 X2-Y2-1= 4.44D-16
          S2Grnd=  0.773 Ra=  0.468 Rb=  0.274 T=  0.252 S2Ext=  0.994 S2=  1.767
 ExtSpn:  IState=    46 X2= 1.003 Y2= 0.003 X2-Y2-1= 1.33D-15
          S2Grnd=  0.773 Ra=  0.497 Rb=  0.399 T=  0.340 S2Ext=  1.236 S2=  2.009
 ExtSpn:  IState=    47 X2= 1.002 Y2= 0.002 X2-Y2-1=-4.44D-16
          S2Grnd=  0.773 Ra=  0.548 Rb=  0.397 T=  0.597 S2Ext=  1.543 S2=  2.315
 ExtSpn:  IState=    48 X2= 1.003 Y2= 0.003 X2-Y2-1=-3.11D-15
          S2Grnd=  0.773 Ra=  0.788 Rb=  0.164 T=  0.297 S2Ext=  1.249 S2=  2.022
 ExtSpn:  IState=    49 X2= 1.004 Y2= 0.004 X2-Y2-1=-7.77D-16
          S2Grnd=  0.773 Ra=  0.233 Rb=  0.607 T=  0.286 S2Ext=  1.126 S2=  1.898
 ExtSpn:  IState=    50 X2= 1.003 Y2= 0.003 X2-Y2-1=-8.88D-16
          S2Grnd=  0.773 Ra=  0.201 Rb=  0.625 T=  0.349 S2Ext=  1.175 S2=  1.948
 ExtSpn:  IState=    51 X2= 1.004 Y2= 0.004 X2-Y2-1= 4.44D-16
          S2Grnd=  0.773 Ra=  0.136 Rb=  0.472 T=  0.244 S2Ext=  0.852 S2=  1.625
 ExtSpn:  IState=    52 X2= 1.004 Y2= 0.004 X2-Y2-1=-6.66D-16
          S2Grnd=  0.773 Ra=  0.191 Rb=  0.670 T=  0.582 S2Ext=  1.444 S2=  2.217
 ExtSpn:  IState=    53 X2= 1.004 Y2= 0.004 X2-Y2-1=-9.99D-16
          S2Grnd=  0.773 Ra=  0.156 Rb=  0.560 T=  0.510 S2Ext=  1.225 S2=  1.998
 ExtSpn:  IState=    54 X2= 1.002 Y2= 0.002 X2-Y2-1=-4.22D-15
          S2Grnd=  0.773 Ra=  0.082 Rb=  0.227 T=  0.146 S2Ext=  0.454 S2=  1.227
 ExtSpn:  IState=    55 X2= 1.004 Y2= 0.004 X2-Y2-1= 6.66D-16
          S2Grnd=  0.773 Ra=  0.197 Rb=  0.624 T=  0.411 S2Ext=  1.233 S2=  2.006
 ExtSpn:  IState=    56 X2= 1.004 Y2= 0.004 X2-Y2-1=-6.66D-16
          S2Grnd=  0.773 Ra=  0.111 Rb=  0.682 T= -0.029 S2Ext=  0.764 S2=  1.537
 ExtSpn:  IState=    57 X2= 1.004 Y2= 0.004 X2-Y2-1=-3.33D-16
          S2Grnd=  0.773 Ra=  0.280 Rb=  0.578 T= -0.222 S2Ext=  0.636 S2=  1.409
 ExtSpn:  IState=    58 X2= 1.001 Y2= 0.001 X2-Y2-1= 4.44D-16
          S2Grnd=  0.773 Ra=  0.908 Rb=  0.061 T=  0.027 S2Ext=  0.996 S2=  1.769
 ExtSpn:  IState=    59 X2= 1.004 Y2= 0.004 X2-Y2-1=-3.33D-16
          S2Grnd=  0.773 Ra=  0.469 Rb=  0.289 T= -0.155 S2Ext=  0.604 S2=  1.376
 ExtSpn:  IState=    60 X2= 1.001 Y2= 0.001 X2-Y2-1= 8.88D-16
          S2Grnd=  0.773 Ra=  0.951 Rb=  0.029 T=  0.135 S2Ext=  1.115 S2=  1.888
 Ground to excited state transition densities written to RWF  633
 Ground to excited state transition electric dipole moments (Au):
       state          X           Y           Z        Dip. S.      Osc.
         1        -2.3006      0.0015      0.0002      5.2928      0.1765
         2         0.0012      1.5703      0.2673      2.5374      0.1437
         3         0.3921     -0.0002     -0.0005      0.1537      0.0092
         4         0.0001      0.4586     -0.5719      0.5373      0.0338
         5        -0.0003     -0.0612      0.0338      0.0049      0.0003
         6        -0.4248      0.0004      0.0000      0.1805      0.0131
         7         0.0002     -0.0496      0.0532      0.0053      0.0004
         8        -1.0058      0.0008     -0.0002      1.0117      0.0807
         9         0.2786     -0.0003      0.0016      0.0776      0.0065
        10         0.0000     -0.2627     -1.2934      1.7418      0.1471
        11         0.0015      1.7412      0.1134      3.0445      0.2682
        12         0.6848     -0.0008      0.0001      0.4690      0.0417
        13        -0.0001     -0.0610      0.0341      0.0049      0.0005
        14         0.1408     -0.0003      0.0001      0.0198      0.0019
        15         0.0002     -0.2040      0.3611      0.1720      0.0167
        16        -0.0003      0.3524     -0.3983      0.2829      0.0281
        17        -0.5733      0.0003      0.0002      0.3287      0.0333
        18         0.3297      0.0003     -0.0002      0.1087      0.0112
        19        -0.0002     -0.7403     -0.1637      0.5748      0.0599
        20         0.0000      0.2520     -0.3952      0.2197      0.0233
        21        -0.1528      0.0007      0.0005      0.0233      0.0025
        22         0.0009      0.3688      0.0694      0.1408      0.0154
        23         0.0005      0.9194     -0.1016      0.8555      0.0945
        24        -0.0735      0.0009     -0.0001      0.0054      0.0006
        25         0.2319      0.0009     -0.0003      0.0538      0.0061
        26         0.0012      1.2429     -0.3580      1.6729      0.1902
        27        -0.5637      0.0020      0.0001      0.3177      0.0365
        28        -0.0013     -0.8531     -0.2187      0.7757      0.0894
        29         0.0005      0.0139      0.0123      0.0003      0.0000
        30         0.5495      0.0017      0.0007      0.3020      0.0357
        31        -0.0030      0.3186     -0.3334      0.2127      0.0252
        32         0.0038     -0.0120     -0.3790      0.1438      0.0170
        33         0.2831     -0.0006      0.0001      0.0801      0.0096
        34        -0.5378      0.0005      0.0002      0.2893      0.0350
        35         0.2553      0.0002      0.0000      0.0652      0.0080
        36         0.0002      0.5601     -0.0895      0.3218      0.0401
        37         0.1088     -0.0001      0.0000      0.0118      0.0015
        38        -0.0004      0.3395     -0.1221      0.1302      0.0171
        39        -0.7801      0.0002      0.0001      0.6085      0.0804
        40        -0.0332     -0.0002      0.0000      0.0011      0.0001
        41         0.0002      0.0291     -0.1265      0.0168      0.0023
        42        -0.0658      0.0002     -0.0006      0.0043      0.0006
        43         0.0003      0.2872     -0.0139      0.0827      0.0112
        44        -0.0744      0.0006     -0.0002      0.0055      0.0008
        45         0.0162      0.0000      0.0001      0.0003      0.0000
        46         0.3396     -0.0005     -0.0001      0.1154      0.0159
        47         0.0026      0.0306      0.0142      0.0011      0.0002
        48        -0.1257      0.0001      0.0002      0.0158      0.0022
        49         0.0000     -0.0435     -0.1494      0.0242      0.0034
        50         0.0000     -0.2243     -0.0912      0.0586      0.0083
        51         0.2533     -0.0002      0.0001      0.0642      0.0092
        52         0.5403     -0.0004     -0.0002      0.2919      0.0423
        53        -0.0004     -0.0356     -0.0993      0.0111      0.0016
        54         0.0000     -0.0727      0.0448      0.0073      0.0011
        55        -0.0004     -0.1692     -0.2907      0.1131      0.0166
        56        -0.1874     -0.0001     -0.0001      0.0351      0.0052
        57        -0.0692     -0.0004     -0.0004      0.0048      0.0007
        58         0.3034     -0.0012     -0.0005      0.0921      0.0137
        59         0.0010      1.0545      0.6713      1.5625      0.2334
        60        -0.0002     -0.1205      0.0271      0.0153      0.0023
 Ground to excited state transition velocity dipole moments (Au):
       state          X           Y           Z        Dip. S.      Osc.
         1         0.1131     -0.0001      0.0000      0.0128      0.1706
         2        -0.0001     -0.1316     -0.0213      0.0178      0.1394
         3        -0.0389      0.0000      0.0000      0.0015      0.0112
         4         0.0000     -0.0443      0.0509      0.0045      0.0322
         5         0.0000      0.0043     -0.0033      0.0000      0.0002
         6         0.0489      0.0000      0.0000      0.0024      0.0146
         7         0.0000      0.0034     -0.0060      0.0000      0.0003
         8         0.1190     -0.0001      0.0000      0.0142      0.0789
         9        -0.0397      0.0000     -0.0002      0.0016      0.0084
        10         0.0000      0.0336      0.1619      0.0273      0.1439
        11        -0.0002     -0.2265     -0.0150      0.0515      0.2598
        12        -0.0892      0.0001      0.0000      0.0080      0.0398
        13         0.0000      0.0042     -0.0091      0.0001      0.0005
        14        -0.0233      0.0000      0.0000      0.0005      0.0026
        15         0.0000      0.0303     -0.0567      0.0041      0.0189
        16         0.0000     -0.0478      0.0607      0.0060      0.0266
        17         0.0853      0.0000      0.0000      0.0073      0.0320
        18        -0.0495      0.0000      0.0000      0.0024      0.0105
        19         0.0000      0.1094      0.0278      0.0127      0.0544
        20         0.0000     -0.0414      0.0603      0.0054      0.0225
        21         0.0255     -0.0001     -0.0001      0.0006      0.0027
        22        -0.0001     -0.0592     -0.0171      0.0038      0.0154
        23        -0.0001     -0.1444      0.0179      0.0212      0.0852
        24         0.0134     -0.0001      0.0000      0.0002      0.0007
        25        -0.0397     -0.0001      0.0000      0.0016      0.0062
        26        -0.0002     -0.2115      0.0596      0.0483      0.1887
        27         0.0986     -0.0003      0.0000      0.0097      0.0377
        28         0.0002      0.1480      0.0367      0.0233      0.0897
        29        -0.0001     -0.0002      0.0042      0.0000      0.0001
        30        -0.0955     -0.0003     -0.0002      0.0091      0.0343
        31         0.0005     -0.0509      0.0612      0.0063      0.0238
        32        -0.0007      0.0061      0.0738      0.0055      0.0206
        33        -0.0509      0.0001      0.0000      0.0026      0.0096
        34         0.0956     -0.0001      0.0000      0.0091      0.0336
        35        -0.0454      0.0000      0.0000      0.0021      0.0075
        36         0.0000     -0.1064      0.0133      0.0115      0.0410
        37        -0.0211      0.0000      0.0000      0.0004      0.0016
        38         0.0001     -0.0666      0.0235      0.0050      0.0169
        39         0.1519      0.0000      0.0000      0.0231      0.0776
        40         0.0057      0.0000      0.0000      0.0000      0.0001
        41         0.0000     -0.0073      0.0243      0.0006      0.0021
        42         0.0120      0.0000      0.0001      0.0001      0.0005
        43        -0.0001     -0.0549      0.0045      0.0030      0.0099
        44         0.0144     -0.0001      0.0000      0.0002      0.0007
        45        -0.0025      0.0000      0.0000      0.0000      0.0000
        46        -0.0707      0.0001      0.0000      0.0050      0.0161
        47        -0.0005     -0.0055     -0.0055      0.0001      0.0002
        48         0.0250      0.0000      0.0000      0.0006      0.0020
        49         0.0000      0.0059      0.0288      0.0009      0.0027
        50         0.0000      0.0458      0.0176      0.0024      0.0075
        51        -0.0561      0.0000      0.0000      0.0032      0.0098
        52        -0.1179      0.0001      0.0001      0.0139      0.0427
        53         0.0001      0.0094      0.0266      0.0008      0.0024
        54         0.0000      0.0164     -0.0098      0.0004      0.0011
        55         0.0001      0.0357      0.0649      0.0055      0.0166
        56         0.0406      0.0000      0.0000      0.0017      0.0050
        57         0.0148      0.0001      0.0001      0.0002      0.0007
        58        -0.0676      0.0003      0.0001      0.0046      0.0136
        59        -0.0002     -0.2361     -0.1504      0.0784      0.2332
        60         0.0001      0.0273     -0.0053      0.0008      0.0023
 Ground to excited state transition magnetic dipole moments (Au):
       state          X           Y           Z
         1        -0.1504      0.0002     -0.0001
         2         0.0002      0.1722      0.0571
         3         0.0175      0.0001      0.0000
         4         0.0002      0.1935     -0.0368
         5         0.0000      0.2571     -0.2082
         6        -0.2465      0.0002      0.0002
         7         0.0002      0.2784      0.1655
         8        -0.0239      0.0001      0.0001
         9         0.0313     -0.0002     -0.0010
        10         0.0003      0.1177      0.6225
        11         0.0002      0.0588      0.1200
        12         0.1089     -0.0001     -0.0001
        13         0.0001      0.2008     -0.7689
        14         0.2181     -0.0001      0.0000
        15        -0.0003     -0.3900     -0.5156
        16         0.0001     -0.1772      0.4467
        17         0.0281     -0.0001     -0.0003
        18         0.0050      0.0002      0.0000
        19        -0.0001     -0.2467      0.3280
        20         0.0002      0.1067     -0.1062
        21         0.0249     -0.0002     -0.0006
        22         0.0000     -0.1067     -0.5777
        23         0.0002      0.1163      0.3695
        24        -0.1075      0.0002      0.0003
        25         0.0310      0.0000      0.0003
        26         0.0003      0.1303      0.2206
        27        -0.0743      0.0004      0.0008
        28        -0.0002     -0.0004     -0.2015
        29         0.0003      0.3556      0.5968
        30         0.1473     -0.0011     -0.0050
        31        -0.0005      0.3251      0.1848
        32         0.0013      0.3848      0.8568
        33         0.3457     -0.0003      0.0001
        34        -0.0002     -0.0002      0.0000
        35        -0.0943      0.0003     -0.0003
        36         0.0005      0.8873     -0.6828
        37        -0.0966     -0.0001      0.0002
        38         0.0003      0.3140      0.2259
        39         0.0147     -0.0002     -0.0004
        40         0.0321     -0.0003     -0.0002
        41        -0.0004     -0.0006      0.2551
        42         0.1149      0.0000      0.0009
        43         0.0001      0.1339      0.0107
        44        -0.0250      0.0003      0.0003
        45        -0.1072      0.0000      0.0000
        46         0.1198      0.0002      0.0007
        47         0.0009     -0.0644     -0.0876
        48        -0.0491      0.0002     -0.0001
        49        -0.0001     -0.1029     -0.0096
        50         0.0000      0.1039     -0.0582
        51         0.0533     -0.0001      0.0001
        52         0.2041      0.0002      0.0004
        53         0.0000      0.1788      0.2799
        54        -0.0001     -0.1225     -0.2484
        55         0.0001      0.2692      0.4728
        56         0.1376     -0.0002      0.0002
        57        -0.0158     -0.0002      0.0008
        58        -0.1136     -0.0007      0.0016
        59         0.0003      0.8960     -1.7570
        60         0.0001      0.1831      0.2579
 Ground to excited state transition velocity quadrupole moments (Au):
       state          XX          YY          ZZ          XY          XZ          YZ
         1        -0.0071      0.0161     -0.0282      0.0001      0.0002      0.3432
         2        -0.0004      0.0003      0.0001     -0.1770     -0.3039      0.0002
         3        -0.2075      0.1057      0.0431      0.0006      0.0000      0.0102
         4         0.0008     -0.0007      0.0000      0.4779     -0.0987      0.0000
         5         0.0000      0.0000      0.0000     -0.0026      0.0332      0.0000
         6        -0.1822      0.0058      0.0588      0.0001      0.0000      0.0367
         7        -0.0003      0.0004      0.0000     -0.2821     -0.0221      0.0000
         8         0.0903     -0.1497     -0.0751      0.0001      0.0001      0.3360
         9        -0.4460      0.1463      0.0230     -0.0011      0.0003      0.2442
        10         0.0013     -0.0015      0.0000      1.2864      0.0384      0.0002
        11        -0.0004      0.0001      0.0001     -0.0502     -0.5384      0.0004
        12         0.1617     -0.0778     -0.0208     -0.0003     -0.0001     -0.3384
        13         0.0007     -0.0005     -0.0001      0.3359      0.1339     -0.0002
        14         0.3504     -0.0334     -0.1376     -0.0004      0.0001      0.1863
        15        -0.0002      0.0002      0.0000     -0.1357      0.1041     -0.0001
        16         0.0011     -0.0010      0.0000      0.7553     -0.1107      0.0002
        17         0.1283     -0.1387     -0.0703     -0.0003      0.0002      0.2724
        18        -0.3347     -0.2311     -0.0435      0.0002     -0.0002     -0.1084
        19         0.0001     -0.0002      0.0000      0.1191      0.2114     -0.0003
        20         0.0011     -0.0008      0.0000      0.7265     -0.0464      0.0001
        21         0.1437     -0.0226     -0.0044     -0.0005     -0.0002     -0.0128
        22        -0.0001     -0.0001      0.0000      0.1858     -0.0905      0.0001
        23         0.0003     -0.0003      0.0000      0.0855     -0.3724      0.0003
        24        -0.3266      0.0964      0.0901      0.0004     -0.0004     -0.0549
        25         0.1713      0.2105      0.0515      0.0007     -0.0004     -0.0435
        26         0.0004     -0.0008      0.0000      0.7111     -0.4779      0.0004
        27         0.4217     -0.3759     -0.0632     -0.0011     -0.0011     -0.2644
        28         0.0013     -0.0010      0.0000      0.4461      0.3807     -0.0006
        29        -0.0012      0.0012      0.0002     -0.5770     -0.1708      0.0004
        30        -0.0141      0.1914     -0.0167      0.0034     -0.0004     -0.1284
        31         0.0007     -0.0016      0.0001      0.3960     -0.1516      0.0008
        32        -0.0004      0.0016      0.0000     -0.1123     -0.0672     -0.0008
        33         0.5759     -0.0929     -0.2294     -0.0008      0.0002      0.1298
        34         0.3469      0.3429      0.0652      0.0001      0.0001      0.2184
        35        -0.3496      0.4842      0.2111      0.0006     -0.0001     -0.1018
        36         0.0005     -0.0005     -0.0001      0.1766     -0.1529      0.0000
        37        -0.1037     -0.1369      0.0081      0.0000     -0.0001     -0.1591
        38         0.0005     -0.0006     -0.0001      0.3469     -0.1674      0.0007
        39         0.0867      0.0694     -0.0216     -0.0002      0.0005      0.6146
        40        -0.0617     -0.4975     -0.2374     -0.0004      0.0002      0.1905
        41         0.0003      0.0004      0.0002      0.2536     -0.0476     -0.0005
        42         0.0009     -0.2523     -0.0700      0.0010     -0.0002      0.1438
        43         0.0002     -0.0003      0.0000      0.1411     -0.1268     -0.0002
        44        -0.0094      0.0890      0.0254      0.0006     -0.0002      0.1113
        45         0.0052     -0.1439      0.0102     -0.0003     -0.0002     -0.2293
        46         0.3018      0.0418     -0.1083     -0.0004     -0.0001     -0.0809
        47         0.0024      0.0006     -0.0008      0.0430      0.0096     -0.0004
        48        -0.0443     -0.0799      0.0165     -0.0007      0.0000      0.0812
        49         0.0010     -0.0005      0.0001      0.6018     -0.0015     -0.0001
        50         0.0002     -0.0002      0.0000      0.1375      0.1732     -0.0003
        51         0.0880      0.5769      0.1303      0.0001      0.0001     -0.0221
        52         0.3182     -0.1216     -0.2383     -0.0007     -0.0001      0.1210
        53        -0.0007      0.0007      0.0002     -0.4004     -0.1479      0.0000
        54         0.0001      0.0000      0.0000      0.0469      0.0626     -0.0001
        55        -0.0001     -0.0001      0.0001      0.0906      0.0576     -0.0001
        56         0.7082     -0.0696     -0.1339     -0.0002      0.0001      0.0064
        57        -0.2705     -0.1095      0.0825      0.0006      0.0001     -0.0021
        58         0.1830      0.0554      0.0624      0.0005      0.0000     -0.4228
        59        -0.0014      0.0013      0.0001     -0.8094     -0.3323      0.0002
        60        -0.0001     -0.0003     -0.0001     -0.0644      0.0211      0.0002
 <0|del|b> * <b|rxdel|0> + <0|del|b> * <b|delr+rdel|0>
 Rotatory Strengths (R) in cgs (10**-40 erg-esu-cm/Gauss)
       state          XX          YY          ZZ    R(velocity)    E-M Angle
         1         0.0000    154.1982   -394.6847    -80.1622       90.00
         2      -250.1471    -20.7370     72.1567    -66.2425      170.84
         3         0.0001     -4.2374     -1.1120     -1.7831       90.00
         4        35.6814    -98.2635    -15.7395    -26.1072      141.80
         5         5.5620      2.2791      4.1823      4.0078       90.00
         6         0.0000    -33.3441    -45.0150    -26.1197       90.00
         7         5.3638     -8.3643      2.7165     -0.0947       90.00
         8         0.0000    109.8094   -126.6224     -5.6043       90.00
         9         0.0011    -30.7592     23.7728     -2.3284       90.00
        10       870.1247   -300.0280     14.6533    194.9167        1.04
        11      -364.6128     -6.8428    290.5760    -26.9598      119.89
        12         0.0000     54.2711   -105.7625    -17.1638       90.00
        13        10.6825     25.4202      3.5939     13.2322       10.39
        14         0.0000    -23.5118     -1.8496     -8.4538       90.00
        15        53.2329     52.2081    -21.0029     28.1460       65.22
        16       180.3719    -44.3683     32.6042     56.2026       16.58
        17         0.0001     59.6963    -48.5478      3.7162       90.00
        18         0.0000     11.6775    -12.8039     -0.3755       90.00
        19       -85.2552     13.1646     -8.7241    -26.9382      112.67
        20        69.1077   -111.7411     -5.5605    -16.0647      169.38
        21         0.0002      0.6730      2.0974      0.9235       90.00
        22        16.5664     28.2472     25.1926     23.3354       63.38
        23      -133.2933     10.8306     78.9441    -14.5062      100.42
        24        -0.0001     -4.6161     -1.4938     -2.0367       90.00
        25         0.0000      1.0352     -6.1743     -1.7130       90.00
        26      -151.5059    -60.6482    152.4435    -19.9035      104.82
        27        -0.0010    -68.5775     38.4769    -10.0339       90.00
        28       -97.0729    -48.6097    115.1990    -10.1612      104.03
        29        -0.0334      9.9260     -0.0706      3.2740       33.40
        30         0.0009     -3.5912    -52.5566    -18.7157      177.87
        31        22.4590    -25.7756    -17.6259     -6.9808      100.16
        32       114.9095    142.4448      3.8475     87.0673       19.48
        33        -0.0001    -47.4400    -21.5439    -22.9947       90.00
        34         0.0001     40.6429    -40.7284     -0.0285       90.00
        35         0.0000     17.0519     -0.6570      5.4650       90.00
        36      -221.9611    -21.5897   -147.7422   -130.4310      149.54
        37         0.0000      9.9761     -2.4365      2.5132       90.00
        38       -33.4008     -5.1123    -17.5328    -18.6820      124.83
        39         0.0001    170.4504   -162.4871      2.6544       90.00
        40         0.0000      2.2271     -1.5840      0.2143       90.00
        41        20.9902      0.0614      0.6145      7.2221       16.56
        42         0.0003      5.4109     -0.6047      1.6022       90.00
        43       -23.6734     -1.0184     -0.6792     -8.4570      170.75
        44        -0.0001      2.1442     -3.3855     -0.4138       90.00
        45         0.0000      1.4357     -0.5210      0.3049       90.00
        46         0.0001     -4.7009    -24.2508     -9.6505       90.00
        47         1.1170      1.2179      0.5182      0.9510       10.10
        48         0.0000      1.3387     -5.4255     -1.3623       90.00
        49        27.4082    -29.3280     -1.0303     -0.9833      106.95
        50        -2.9464     -5.6889     21.0118      4.1255       50.22
        51         0.0000     -2.8819     -6.9754     -3.2858       90.00
        52         0.0000    -62.3727    -15.9378    -26.1035       90.00
        53        -0.2121     29.4053      0.4726      9.8886       13.09
        54        -1.6930      4.6923     -1.5834      0.4720       85.25
        55        70.9506     39.8819     18.7814     43.2046        0.81
        56         0.0000      9.3607      8.5278      5.9628       90.00
        57         0.0002     -0.4191     -0.3224     -0.2471       90.00
        58         0.0001     57.3761    -33.0760      8.1000        0.93
        59       151.6144    224.9403   -209.9890     55.5219       84.51
        60         5.2824     -2.6723      8.6803      3.7635       65.66
 1/2[<0|r|b>*<b|rxdel|0> + (<0|rxdel|b>*<b|r|0>)*]
 Rotatory Strengths (R) in cgs (10**-40 erg-esu-cm/Gauss)
       state          XX          YY          ZZ     R(length)
         1      -244.6163     -0.0002      0.0000    -81.5388
         2        -0.0001   -191.2099    -10.7952    -67.3351
         3        -4.8536      0.0000      0.0000     -1.6179
         4         0.0000    -62.7376    -14.9013    -25.8796
         5         0.0000     11.1334      4.9740      5.3691
         6       -74.0589     -0.0001      0.0000    -24.6863
         7         0.0000      9.7609     -6.2270      1.1779
         8       -16.9969      0.0000      0.0000     -5.6656
         9        -6.1648      0.0000      0.0011     -2.0546
        10         0.0000     21.8555    569.3557    197.0704
        11        -0.0002    -72.3769     -9.6284    -27.3352
        12       -52.7248     -0.0001      0.0000    -17.5749
        13         0.0000      8.6538     18.5403      9.0647
        14       -21.7135      0.0000      0.0000     -7.2379
        15         0.0001    -56.2617    131.6646     25.1343
        16         0.0000     44.1618    125.8440     56.6686
        17        11.3767      0.0000      0.0000      3.7922
        18        -1.1628     -0.0001      0.0000     -0.3876
        19         0.0000   -129.1304     37.9683    -30.3874
        20         0.0000    -19.0184    -29.6896    -16.2360
        21         2.6865      0.0001      0.0002      0.8956
        22         0.0000     27.8342     28.3322     18.7222
        23        -0.0001    -75.6060     26.5444    -16.3539
        24        -5.5871     -0.0001      0.0000     -1.8624
        25        -5.0815      0.0000      0.0001     -1.6938
        26        -0.0003   -114.5196     55.8576    -19.5541
        27       -29.6335     -0.0005      0.0000     -9.8780
        28        -0.0002     -0.2296    -31.1647    -10.4648
        29        -0.0001     -3.5066     -5.1829     -2.8965
        30       -57.2255      0.0013      0.0023    -19.0740
        31        -0.0011    -73.2570     43.5715     -9.8956
        32        -0.0034      3.2720    229.6423     77.6370
        33       -69.1941     -0.0001      0.0000    -23.0647
        34        -0.0874      0.0001      0.0000     -0.0291
        35        17.0206      0.0000      0.0000      5.6735
        36        -0.0001   -351.4682    -43.2352   -131.5678
        37         7.4346      0.0000      0.0000      2.4782
        38         0.0001    -75.3880     19.4958    -18.6307
        39         8.1087      0.0000      0.0000      2.7029
        40         0.7543      0.0000      0.0000      0.2514
        41         0.0001      0.0131     22.8195      7.6109
        42         5.3487      0.0000      0.0003      1.7830
        43         0.0000    -27.1904      0.1055     -9.0283
        44        -1.3147     -0.0001      0.0000     -0.4383
        45         1.2255      0.0000      0.0000      0.4085
        46       -28.7755      0.0001      0.0001     -9.5918
        47        -0.0017      1.3936      0.8806      0.7575
        48        -4.3630      0.0000      0.0000     -1.4543
        49         0.0000     -3.1610     -1.0128     -1.3913
        50         0.0000     16.4810     -3.7538      4.2424
        51        -9.5469      0.0000      0.0000     -3.1823
        52       -77.9791      0.0000      0.0001    -25.9930
        53         0.0000      4.5021     19.6601      8.0541
        54         0.0000     -6.2963      7.8637      0.5224
        55         0.0000     32.2026     97.1887     43.1304
        56        18.2321      0.0000      0.0000      6.0774
        57        -0.7745     -0.0001      0.0002     -0.2581
        58        24.3740     -0.0006      0.0005      8.1246
        59        -0.0002   -668.1086    834.0493     55.3135
        60         0.0000     15.6091     -4.9461      3.5543
  1/2[<0|del|b>*<b|r|0> + (<0|r|b>*<b|del|0>)*] (Au)
       state          X           Y           Z        Dip. S.   Osc.(frdel)
         1        -0.2603      0.0000      0.0000      0.2603      0.1735
         2         0.0000     -0.2066     -0.0057      0.2123      0.1415
         3        -0.0153      0.0000      0.0000      0.0153      0.0102
         4         0.0000     -0.0203     -0.0291      0.0494      0.0329
         5         0.0000     -0.0003     -0.0001      0.0004      0.0003
[...]
     5  C    0.000000   0.000008   0.000000  -0.000002   0.000000   0.000000
     6  C    0.000042  -0.000003   0.000000   0.000000   0.000002   0.000005
     7  C    0.000117   0.000000  -0.000001   0.000000   0.000003   0.000000
     8  C   -0.000022  -0.002003   0.000000   0.000108   0.000000   0.000042
     9  C    0.000097  -0.000194  -0.000012   0.000069  -0.000003   0.000000
    10  C   -0.000710   0.000076   0.000001   0.000009  -0.000040   0.000008
    11  C   -0.000113   0.000000   0.000000   0.000000   0.000003   0.000000
    12  H    0.000003   0.000000   0.000000   0.000000   0.000000   0.000000
    13  C    0.000089   0.000004  -0.000011  -0.000099   0.000024   0.000001
    14  C   -0.000162   0.000005   0.000023  -0.000005   0.000010   0.000000
    15  C    0.000341  -0.000327   0.000009  -0.000062  -0.000118  -0.000116
    16  C   -0.002005  -0.000004   0.000034   0.000000  -0.000068  -0.000003
    17  C    0.001865  -0.009831  -0.000002  -0.001338   0.000291   0.000105
    18  H    0.000108   0.000000  -0.000004  -0.000001   0.000004   0.000000
    19  C    0.000955  -0.000009  -0.003843   0.000031  -0.000375   0.000000
    20  C    0.010150   0.000133  -0.001684   0.000308   0.000535   0.000000
    21  C    0.000201   0.000000   0.002663   0.000000   0.000600   0.000000
    22  H    0.000001  -0.000078   0.000000  -0.000001   0.000000   0.000390
    23  C   -0.000027   0.015670   0.000000   0.001479  -0.000013   0.000966
    24  C    0.000004  -0.000566   0.000000  -0.000102   0.000000  -0.001202
    25  C    0.059366   0.000004  -0.003124   0.000012  -0.003856   0.000000
    26  C    0.000004   0.085049   0.000000   0.001114  -0.000004   0.000360
    27  C   -0.003124   0.000000   0.084689  -0.000001   0.003383   0.000000
    28  H    0.000012   0.001114  -0.000001  -0.003833  -0.000004   0.000007
    29  C   -0.003856  -0.000004   0.003383  -0.000004  -0.039906   0.000000
    30  C    0.000000   0.000360   0.000000   0.000007   0.000000  -0.049472
    31  H    0.000000  -0.000041   0.000000  -0.000001   0.000000  -0.000099
    32  C   -0.000002  -0.006124   0.000000  -0.000408   0.000000   0.000331
    33  C    0.000000  -0.003362   0.000000  -0.000002   0.000000   0.001966
    34  H    0.000000   0.000071   0.000000   0.000024   0.000000   0.000002
    35  H    0.000000  -0.000070   0.000000   0.000002   0.000000   0.000237
    36  H   -0.000014   0.000079   0.000000   0.000003   0.000000  -0.000037
    37  H    0.000000  -0.000002   0.000000   0.000000   0.000000   0.000000
    38  H    0.000002   0.000044   0.000000  -0.000026   0.000000  -0.000070
    39  H    0.000000   0.000000   0.000000   0.000000   0.000000   0.000000
    40  H    0.000000   0.000000   0.000000   0.000000   0.000000   0.000000
    41  H   -0.000005   0.000006   0.000046  -0.000006   0.000014   0.000000
    42  H    0.000255   0.000032  -0.000010   0.000010  -0.000280   0.000000
    43  H   -0.000171   0.000000  -0.000151   0.000000   0.000010   0.000000
    44  H   -0.000009   0.000000  -0.000183   0.000000   0.000014   0.000000
    45  H   -0.000036   0.000000   0.000624   0.000000   0.000187   0.000000
    46  C   -0.002953   0.000619   0.000112  -0.001337   0.000332  -0.000013
    47  H   -0.000027  -0.000001   0.000070   0.000001  -0.000006   0.000000
              31         32         33         34         35         36
     1  C    0.000000   0.000000  -0.000001   0.000000   0.000000   0.000000
     2  C    0.000000   0.000003   0.000003   0.000000   0.000000   0.000000
     3  H    0.000000   0.000000   0.000000   0.000000   0.000000   0.000078
     4  H    0.000000   0.000000   0.000000   0.000000   0.000000   0.000002
     5  C    0.000000   0.000000   0.000000   0.000000   0.000000   0.000000
     6  C    0.000000   0.000000   0.000000   0.000000   0.000000   0.000390
     7  C    0.000000   0.000000   0.000000   0.000000   0.000000  -0.000053
     8  C   -0.000001  -0.000113   0.000117   0.000003   0.000000   0.000001
     9  C    0.000000  -0.000003   0.000001   0.000000   0.000000   0.000000
    10  C    0.000010   0.000000   0.000005   0.000000   0.000000   0.000160
    11  C    0.000000   0.000000   0.000000   0.000000   0.000000   0.000013
    12  H    0.000000   0.000000   0.000000   0.000000   0.000000   0.000000
    13  C    0.000000   0.000014   0.000002   0.000000   0.000000  -0.000002
    14  C    0.000000   0.000000   0.000000   0.000000   0.000000   0.000000
    15  C    0.000006   0.000045  -0.000007   0.000000   0.000000   0.000688
    16  C    0.000000   0.000000   0.000000   0.000000   0.000000  -0.000078
    17  C   -0.000015   0.000615   0.000133  -0.000010   0.000002  -0.000510
    18  H    0.000000   0.000000   0.000000   0.000000   0.000000  -0.000001
    19  C    0.000000  -0.000001   0.000000   0.000000   0.000000   0.000000
    20  C    0.000000  -0.000030   0.000001   0.000001   0.000000   0.000010
    21  C    0.000000   0.000000   0.000000   0.000000   0.000000   0.000000
    22  H    0.000078   0.000013  -0.000052   0.000000   0.000002   0.000016
    23  C    0.000030   0.000619  -0.001331  -0.000006   0.000014   0.000450
    24  C   -0.000235   0.000483  -0.004233  -0.000011  -0.000053   0.000054
    25  C    0.000000  -0.000002   0.000000   0.000000   0.000000  -0.000014
    26  C   -0.000041  -0.006124  -0.003362   0.000071  -0.000070   0.000079
    27  C    0.000000   0.000000   0.000000   0.000000   0.000000   0.000000
    28  H   -0.000001  -0.000408  -0.000002   0.000024   0.000002   0.000003
    29  C    0.000000   0.000000   0.000000   0.000000   0.000000   0.000000
    30  C   -0.000099   0.000331   0.001966   0.000002   0.000237  -0.000037
    31  H    0.002819   0.000048  -0.000349  -0.000002   0.000047  -0.000003
    32  C    0.000048  -0.043045   0.002478  -0.000232   0.000208  -0.000010
    33  C   -0.000349   0.002478   0.093271  -0.000126   0.000594  -0.000009
    34  H   -0.000002  -0.000232  -0.000126   0.001772   0.000038   0.000000
    35  H    0.000047   0.000208   0.000594   0.000038  -0.004664   0.000000
    36  H   -0.000003  -0.000010  -0.000009   0.000000   0.000000  -0.004895
    37  H    0.000000   0.000000   0.000000   0.000000   0.000000   0.000000
    38  H    0.000001   0.000031  -0.000032   0.000000   0.000000  -0.000001
    39  H    0.000000   0.000000   0.000000   0.000000   0.000000   0.000000
    40  H    0.000000   0.000000   0.000000   0.000000   0.000000   0.000000
    41  H    0.000000   0.000000   0.000000   0.000000   0.000000   0.000000
    42  H    0.000000  -0.000002   0.000000   0.000000   0.000000   0.000032
    43  H    0.000000   0.000000   0.000000   0.000000   0.000000   0.000000
    44  H    0.000000   0.000000   0.000000   0.000000   0.000000   0.000000
    45  H    0.000000   0.000000   0.000000   0.000000   0.000000   0.000000
    46  C    0.000001   0.000229  -0.000027  -0.000006   0.000000  -0.000027
    47  H    0.000000   0.000000   0.000000   0.000000   0.000000   0.000000
              37         38         39         40         41         42
     1  C   -0.000150  -0.000010  -0.000183   0.000624   0.000070   0.000000
     2  C    0.000009  -0.000277   0.000014   0.000187  -0.000006   0.000000
     3  H    0.000000   0.000000   0.000000   0.000000   0.000000   0.000001
     4  H    0.000000   0.000000   0.000000   0.000000   0.000000   0.000000
     5  C    0.000011  -0.000006  -0.000055   0.000121   0.000442   0.000000
     6  C    0.000000   0.000000   0.000000   0.000000   0.000000  -0.000070
     7  C    0.000000   0.000000   0.000000   0.000000   0.000000  -0.000032
     8  C   -0.000171   0.000255  -0.000009  -0.000036  -0.000027   0.000002
     9  C   -0.000008   0.000016  -0.000160  -0.000036  -0.002805   0.000002
    10  C    0.000000  -0.000002   0.000000   0.000000   0.000000   0.000393
    11  C    0.000000  -0.000002   0.000000   0.000000   0.000000   0.000031
    12  H    0.000000   0.000000   0.000000   0.000000   0.000000   0.000000
    13  C    0.000023   0.001400   0.000013  -0.000003  -0.000163  -0.000067
    14  C    0.000000   0.000002   0.000082   0.000002   0.004076   0.000002
    15  C    0.000000   0.000156   0.000000   0.000000   0.000001   0.000195
    16  C    0.000000   0.000032   0.000000   0.000000  -0.000001   0.000045
    17  C    0.000005  -0.001987   0.000001   0.000000   0.000010  -0.001988
    18  H    0.000000   0.000010   0.000000   0.000000   0.000001  -0.000026
    19  C    0.000000   0.000002   0.000003   0.000000  -0.002872   0.000015
    20  C    0.000000  -0.000067   0.000003   0.000000  -0.000401   0.001402
    21  C    0.000000   0.000000   0.000001   0.000000  -0.000114  -0.000006
    22  H    0.000000   0.000032   0.000000   0.000000   0.000000  -0.000001
    23  C   -0.000003   0.000196   0.000000   0.000000  -0.000002   0.000156
    24  C   -0.000001   0.000391   0.000000   0.000000   0.000000  -0.000002
    25  C    0.000000   0.000002   0.000000   0.000000  -0.000005   0.000255
    26  C   -0.000002   0.000044   0.000000   0.000000   0.000006   0.000032
    27  C    0.000000   0.000000   0.000000   0.000000   0.000046  -0.000010
    28  H    0.000000  -0.000026   0.000000   0.000000  -0.000006   0.000010
    29  C    0.000000   0.000000   0.000000   0.000000   0.000014  -0.000280
    30  C    0.000000  -0.000070   0.000000   0.000000   0.000000   0.000000
    31  H    0.000000   0.000001   0.000000   0.000000   0.000000   0.000000
    32  C    0.000000   0.000031   0.000000   0.000000   0.000000  -0.000002
    33  C    0.000000  -0.000032   0.000000   0.000000   0.000000   0.000000
    34  H    0.000000   0.000000   0.000000   0.000000   0.000000   0.000000
    35  H    0.000000   0.000000   0.000000   0.000000   0.000000   0.000000
    36  H    0.000000  -0.000001   0.000000   0.000000   0.000000   0.000032
    37  H    0.001594   0.000010   0.000000   0.000027   0.000000   0.000000
    38  H    0.000010  -0.003139  -0.000001   0.000002   0.000001  -0.000001
    39  H    0.000000  -0.000001   0.001756   0.000031  -0.000111   0.000000
    40  H    0.000027   0.000002   0.000031  -0.004322   0.000001   0.000000
    41  H    0.000000   0.000001  -0.000111   0.000001   0.018420  -0.000001
    42  H    0.000000  -0.000001   0.000000   0.000000  -0.000001  -0.003134
    43  H    0.000000   0.000000   0.000000   0.000000   0.000000   0.000010
    44  H    0.000000   0.000000   0.000000   0.000000   0.000099  -0.000001
    45  H    0.000000   0.000000   0.000000   0.000000   0.000000   0.000002
    46  C    0.000000  -0.000466  -0.000001   0.000001   0.000272  -0.000466
    47  H    0.000000  -0.000001   0.000099   0.000000  -0.004244   0.000001
              43         44         45         46         47
     1  C    0.000000   0.000000   0.000000   0.000112   0.000046
     2  C    0.000000   0.000000   0.000000   0.000332   0.000014
     3  H    0.000000   0.000000   0.000000   0.000001   0.000000
     4  H    0.000000   0.000000   0.000000   0.000000   0.000000
     5  C    0.000000   0.000001   0.000000   0.000041  -0.000114
     6  C    0.000000   0.000000   0.000000  -0.000013   0.000000
     7  C    0.000000   0.000000   0.000000  -0.000027   0.000000
     8  C    0.000000   0.000000   0.000000  -0.002954  -0.000005
     9  C    0.000000   0.000003   0.000000  -0.007602  -0.002872
    10  C   -0.000001   0.000000   0.000000   0.000182   0.000000
    11  C    0.000000   0.000000   0.000000   0.000229   0.000000
    12  H    0.000000   0.000000   0.000000  -0.000006   0.000000
    13  C    0.000000   0.000003   0.000000  -0.026144  -0.000401
    14  C    0.000000   0.000082   0.000002   0.001346   0.004075
    15  C   -0.000003   0.000000   0.000000  -0.005571  -0.000002
    16  C   -0.000002   0.000000   0.000000   0.000622   0.000006
    17  C    0.000005   0.000001   0.000000   0.067273   0.000010
    18  H    0.000000   0.000000   0.000000  -0.001334  -0.000006
    19  C   -0.000008  -0.000160  -0.000036  -0.007598  -0.002805
    20  C    0.000023   0.000013  -0.000003  -0.026163  -0.000163
    21  C    0.000011  -0.000056   0.000121   0.000041   0.000442
    22  H    0.000000   0.000000   0.000000  -0.000027   0.000000
    23  C    0.000000   0.000000   0.000000  -0.005570   0.000001
    24  C    0.000000   0.000000   0.000000   0.000182   0.000000
    25  C   -0.000171  -0.000009  -0.000036  -0.002953  -0.000027
    26  C    0.000000   0.000000   0.000000   0.000619  -0.000001
    27  C   -0.000151  -0.000183   0.000624   0.000112   0.000070
    28  H    0.000000   0.000000   0.000000  -0.001337   0.000001
    29  C    0.000010   0.000014   0.000187   0.000332  -0.000006
    30  C    0.000000   0.000000   0.000000  -0.000013   0.000000
    31  H    0.000000   0.000000   0.000000   0.000001   0.000000
    32  C    0.000000   0.000000   0.000000   0.000229   0.000000
    33  C    0.000000   0.000000   0.000000  -0.000027   0.000000
    34  H    0.000000   0.000000   0.000000  -0.000006   0.000000
    35  H    0.000000   0.000000   0.000000   0.000000   0.000000
    36  H    0.000000   0.000000   0.000000  -0.000027   0.000000
    37  H    0.000000   0.000000   0.000000   0.000000   0.000000
    38  H    0.000000   0.000000   0.000000  -0.000466  -0.000001
    39  H    0.000000   0.000000   0.000000  -0.000001   0.000099
    40  H    0.000000   0.000000   0.000000   0.000001   0.000000
    41  H    0.000000   0.000099   0.000000   0.000272  -0.004244
    42  H    0.000010  -0.000001   0.000002  -0.000466   0.000001
    43  H    0.001594   0.000000   0.000027   0.000000   0.000000
    44  H    0.000000   0.001757   0.000031  -0.000001  -0.000111
    45  H    0.000027   0.000031  -0.004323   0.000001   0.000001
    46  C    0.000000  -0.000001   0.000001   0.205906   0.000272
    47  H    0.000000  -0.000111   0.000001   0.000272   0.018419
 Mulliken charges and spin densities:
               1          2
     1  C    0.037565   0.082616
     2  C    0.016217  -0.039252
     3  H    0.038528   0.002294
     4  H    0.040628  -0.003645
     5  C    0.002614  -0.044012
     6  C    0.011148  -0.046603
     7  C    0.012321   0.089070
     8  C    0.007548   0.060369
     9  C   -0.171751   0.083647
    10  C   -0.002722   0.084742
    11  C    0.008532  -0.044868
    12  H    0.037827   0.001520
    13  C    0.077779  -0.021990
    14  C    0.159354  -0.012254
    15  C   -0.066206  -0.061142
    16  C    0.014012   0.080657
    17  C    0.075035   0.373840
    18  H    0.029221  -0.004052
    19  C   -0.171747   0.083657
    20  C    0.077752  -0.021986
    21  C    0.002627  -0.044016
    22  H    0.034911  -0.003663
    23  C   -0.066085  -0.061091
    24  C   -0.002818   0.084709
    25  C    0.007595   0.060373
    26  C    0.013998   0.080622
    27  C    0.037511   0.082627
    28  H    0.029207  -0.004051
    29  C    0.016250  -0.039263
    30  C    0.011190  -0.046590
    31  H    0.038521   0.002293
    32  C    0.008596  -0.044848
    33  C    0.012198   0.089039
    34  H    0.037807   0.001520
    35  H    0.040674  -0.003644
    36  H    0.034861  -0.003664
    37  H    0.034008   0.001346
    38  H    0.024426  -0.003506
    39  H    0.021330   0.001483
    40  H    0.043097  -0.003401
    41  H    0.116665   0.012699
    42  H    0.024427  -0.003502
    43  H    0.033993   0.001346
    44  H    0.021327   0.001483
    45  H    0.043120  -0.003402
    46  C    0.030250   0.189799
    47  H    0.116658   0.012697
 Sum of Mulliken charges =   1.00000   1.00000
 Mulliken charges and spin densities with hydrogens summed into heavy atoms:
               1          2
     1  C    0.080663   0.079214
     2  C    0.050225  -0.037907
     5  C    0.023944  -0.042529
     6  C    0.049676  -0.044309
     7  C    0.052949   0.085426
     8  C    0.031974   0.056863
     9  C   -0.171751   0.083647
    10  C    0.032140   0.081078
    11  C    0.046360  -0.043347
    13  C    0.077779  -0.021990
    14  C    0.392677   0.013142
    15  C   -0.066206  -0.061142
    16  C    0.043233   0.076605
    17  C    0.075035   0.373840
    19  C   -0.171747   0.083657
    20  C    0.077752  -0.021986
    21  C    0.023954  -0.042533
    23  C   -0.066085  -0.061091
    24  C    0.032093   0.081046
    25  C    0.032022   0.056870
    26  C    0.043205   0.076571
    27  C    0.080631   0.079225
    29  C    0.050243  -0.037917
    30  C    0.049711  -0.044297
    32  C    0.046403  -0.043329
    33  C    0.052873   0.085395
    46  C    0.030250   0.189799
 Electronic spatial extent (au):  <R**2>=           8594.3288
 Charge=              1.0000 electrons
 Dipole moment (field-independent basis, Debye):
    X=              1.6946    Y=             -0.0016    Z=              0.0000  Tot=              1.6946
 Quadrupole moment (field-independent basis, Debye-Ang):
   XX=            -98.0194   YY=           -110.5155   ZZ=           -139.1518
   XY=             -0.0050   XZ=             -0.0004   YZ=              1.1511
 Traceless Quadrupole moment (field-independent basis, Debye-Ang):
   XX=             17.8762   YY=              5.3800   ZZ=            -23.2562
   XY=             -0.0050   XZ=             -0.0004   YZ=              1.1511
 Octapole moment (field-independent basis, Debye-Ang**2):
  XXX=             51.3351  YYY=              0.0130  ZZZ=              0.0031  XYY=            -17.5305
  XXY=             -0.0302  XXZ=              0.0618  XZZ=              1.5611  YZZ=             -0.0050
  YYZ=             -0.0694  XYZ=             56.3807
 Hexadecapole moment (field-independent basis, Debye-Ang**3):
 XXXX=          -4318.4402 YYYY=          -4288.1378 ZZZZ=          -1674.0140 XXXY=              0.2985
 XXXZ=              0.0518 YYYX=             -0.4225 YYYZ=             53.4785 ZZZX=             -0.0515
 ZZZY=            -68.0082 XXYY=          -1235.1803 XXZZ=          -1119.5243 YYZZ=           -819.8050
 XXYZ=             35.2512 YYXZ=              0.0152 ZZXY=              0.1372
 N-N= 2.266566063793D+03 E-N=-6.921140227066D+03  KE= 1.033285344893D+03
 1|1|UNPC-CHSHR-P01|SP|UwB97XD TD-FC|CC-pVDZ|C27H20(1+,2)|IBS|01-May-20
 24|0||# td=(nstates=60) wb97xd/cc-pvdz scrf=(cpcm,solvent=n,n-DiMethyl
 Formamide) geom=connectivity||Molecule Name||1,2|C,0,-2.7101,3.2659,-1
 .7138|C,0,-1.3094,3.2434,-1.7754|H,0,4.4589,-2.9509,-0.2607|H,0,3.4435
 ,-4.1463,-2.1924|C,0,-3.3946,2.2145,-1.1229|C,0,3.4999,-2.623,-0.6634|
 C,0,2.9256,-3.2975,-1.7434|C,0,-0.6149,2.1907,-1.2177|C,0,-2.7079,1.13
 67,-0.5564|C,0,2.8473,-1.5393,-0.09|C,0,1.6889,-2.8897,-2.2493|H,0,1.2
 455,-3.4085,-3.0998|C,0,-1.2927,1.1293,-0.5601|C,0,-3.4948,-0.0024,0.0
 004|C,0,1.5915,-1.1243,-0.5825|C,0,1.0227,-1.8185,-1.6719|C,0,0.8737,0
 .0007,-0.0003|H,0,0.0638,-1.4934,-2.0789|C,0,-2.706,-1.1403,0.5569|C,0
 ,-1.2908,-1.1308,0.5601|C,0,-3.3909,-2.2191,1.1237|H,0,3.2828,1.0395,-
 0.7732|C,0,1.5902,1.1265,0.5821|C,0,2.8455,1.543,0.0897|C,0,-0.6112,-2
 .1912,1.2174|C,0,1.0206,1.8199,1.6716|C,0,-2.7046,-3.2695,1.7143|H,0,0
 .0621,1.4936,2.0785|C,0,-1.3039,-3.245,1.7753|C,0,3.497,2.6273,0.6632|
 H,0,4.4556,2.9564,0.2606|C,0,1.6857,2.8917,2.2492|C,0,2.9219,3.301,1.7
 433|H,0,1.2417,3.4099,3.0997|H,0,3.4389,4.1504,2.1925|H,0,3.284,-1.035
 2,0.7727|H,0,-0.7681,4.0486,-2.2723|H,0,0.4692,2.1791,-1.3001|H,0,-4.4
 859,2.214,-1.105|H,0,-3.263,4.0984,-2.1509|H,0,-4.1698,0.3745,0.7879|H
 ,0,0.4729,-2.1779,1.2993|H,0,-0.7612,-4.0494,2.2719|H,0,-4.4822,-2.220
 2,1.1063|H,0,-3.2561,-4.1029,2.1516|C,0,-0.5726,-0.0002,-0.0001|H,0,-4
 .1694,-0.3803,-0.7869||Version=EM64W-G09RevD.01|State=2-A|HF=-1040.453
 8066|S2=0.772863|S2-1=0.|S2A=0.750519|RMSD=3.355e-009|PG=C01 [X(C27H20
 )]||@


 LENDING MONEY TO FRIENDS CAUSES THEM TO LOSE THEIR MEMORIES.

    --  PETER'S THEORY OF RECIPROCAL INHIBITION OF FISCAL RECALL
 Job cpu time:       0 days  2 hours 46 minutes 31.0 seconds.
 File lengths (MBytes):  RWF=   3905 Int=      0 D2E=      0 Chk=    512 Scr=      1
 Normal termination of Gaussian 09 at Wed May 01 00:47:19 2024.
