 Entering Link 1 = C:\G09W\l1.exe PID=     26476.
  
 Copyright (c) 1988,1990,1992,1993,1995,1998,2003,2009,2013,
            Gaussian, Inc.  All Rights Reserved.
  
 This is part of the Gaussian(R) 09 program.  It is based on
 the Gaussian(R) 03 system (copyright 2003, Gaussian, Inc.),
 the Gaussian(R) 98 system (copyright 1998, Gaussian, Inc.),
 the Gaussian(R) 94 system (copyright 1995, Gaussian, Inc.),
 the Gaussian 92(TM) system (copyright 1992, Gaussian, Inc.),
 the Gaussian 90(TM) system (copyright 1990, Gaussian, Inc.),
 the Gaussian 88(TM) system (copyright 1988, Gaussian, Inc.),
 the Gaussian 86(TM) system (copyright 1986, Carnegie Mellon
 University), and the Gaussian 82(TM) system (copyright 1983,
 Carnegie Mellon University). Gaussian is a federally registered
 trademark of Gaussian, Inc.
  
 This software contains proprietary and confidential information,
 including trade secrets, belonging to Gaussian, Inc.
  
 This software is provided under written license and may be
 used, copied, transmitted, or stored only in accord with that
 written license.
  
 The following legend is applicable only to US Government
 contracts under FAR:
  
                    RESTRICTED RIGHTS LEGEND
  
 Use, reproduction and disclosure by the US Government is
 subject to restrictions as set forth in subparagraphs (a)
 and (c) of the Commercial Computer Software - Restricted
 Rights clause in FAR 52.227-19.
  
 Gaussian, Inc.
 340 Quinnipiac St., Bldg. 40, Wallingford CT 06492
  
  
 ---------------------------------------------------------------
 Warning -- This program may not be used in any manner that
 competes with the business of Gaussian, Inc. or will provide
 assistance to any competitor of Gaussian, Inc.  The licensee
 of this program is prohibited from giving any competitor of
 Gaussian, Inc. access to this program.  By using this program,
 the user acknowledges that Gaussian, Inc. is engaged in the
 business of creating and licensing software in the field of
 computational chemistry and represents and warrants to the
 licensee that it is not a competitor of Gaussian, Inc. and that
 it will not use this program in any manner prohibited above.
 ---------------------------------------------------------------
  

 Cite this work as:
 Gaussian 09, Revision D.01,
 M. J. Frisch, G. W. Trucks, H. B. Schlegel, G. E. Scuseria, 
 M. A. Robb, J. R. Cheeseman, G. Scalmani, V. Barone, B. Mennucci, 
 G. A. Petersson, H. Nakatsuji, M. Caricato, X. Li, H. P. Hratchian, 
 A. F. Izmaylov, J. Bloino, G. Zheng, J. L. Sonnenberg, M. Hada, 
 M. Ehara, K. Toyota, R. Fukuda, J. Hasegawa, M. Ishida, T. Nakajima, 
 Y. Honda, O. Kitao, H. Nakai, T. Vreven, J. A. Montgomery, Jr., 
 J. E. Peralta, F. Ogliaro, M. Bearpark, J. J. Heyd, E. Brothers, 
 K. N. Kudin, V. N. Staroverov, T. Keith, R. Kobayashi, J. Normand, 
 K. Raghavachari, A. Rendell, J. C. Burant, S. S. Iyengar, J. Tomasi, 
 M. Cossi, N. Rega, J. M. Millam, M. Klene, J. E. Knox, J. B. Cross, 
 V. Bakken, C. Adamo, J. Jaramillo, R. Gomperts, R. E. Stratmann, 
 O. Yazyev, A. J. Austin, R. Cammi, C. Pomelli, J. W. Ochterski, 
 R. L. Martin, K. Morokuma, V. G. Zakrzewski, G. A. Voth, 
 P. Salvador, J. J. Dannenberg, S. Dapprich, A. D. Daniels, 
 O. Farkas, J. B. Foresman, J. V. Ortiz, J. Cioslowski, 
 and D. J. Fox, Gaussian, Inc., Wallingford CT, 2013.
 
 ******************************************
 Gaussian 09:  EM64W-G09RevD.01 13-Apr-2013
                05-Jul-2024 
 ******************************************
 %nprocshared=15
 Will use up to   15 processors via shared memory.
 %mem=50GB
 %chk=D:\Yaroslav\pink-mystery\OS10plus\conf1_singlet\OS10plus_conf1_580kjm.chk
 ----------------------------------------------------------------------
 # td=(nstates=60) wb97xd/cc-pvdz scrf=(cpcm,solvent=n,n-DiMethylFormam
 ide) geom=AllCheck guess=read maxdisk=900GB integral(ultrafinegrid)
 ----------------------------------------------------------------------
 1/29=7,38=1/1;
 2/12=2,40=1/2;
 3/5=16,11=9,14=-4,16=1,25=1,30=1,70=2101,72=148,74=-58,75=-5,116=-2/1,2,8,3;
 4/5=1/1;
 5/5=2,38=6,53=148/2;
 8/6=1,10=1,108=60/1;
 9/41=60,42=1,70=2/14;
 6/7=2,8=2,9=2,10=2/1;
 99/5=1,9=1/99;
 Structure from the checkpoint file:  "D:\Yaroslav\pink-mystery\OS10plus\conf1_singlet\OS10plus_conf1_580kjm.chk"
 ----------------
 OS10plus_conf1_s
 ----------------
 Charge =  1 Multiplicity = 1
 Redundant internal coordinates found in file.
 O,0,0.2477439113,-1.9775845625,0.7760124861
 O,0,0.8739740671,-0.7036854818,1.0244919183
 C,0,2.2931074892,-0.864702922,1.3033315623
 H,0,2.6413285626,0.1583049546,1.4822849194
 C,0,2.3836239831,-1.767320764,2.4994673675
 C,0,2.9070470705,-1.4493108297,3.7454079386
 C,0,2.8083726917,-2.3827868921,4.7796357151
 C,0,2.1616546576,-3.5992002349,4.5681067716
 C,0,1.6233287699,-3.9130782838,3.3174915953
 C,0,1.7659871033,-3.0025664897,2.2756257234
 C,0,1.2025963011,-3.0771837431,0.8421773595
 C,0,0.4510816822,-4.368819151,0.6182365395
 C,0,1.177001449,-5.5886731169,0.4889901429
 C,0,0.5369030332,-6.7097313781,-0.1188576958
 C,0,1.2150589915,-7.9026730001,-0.2948433217
 C,0,2.5430331645,-8.0118855981,0.1198943709
 C,0,3.2084117904,-6.9175476974,0.6907573714
 C,0,2.5493701387,-5.7189675906,0.859415887
 C,0,-0.9929914491,-4.3908936952,0.6034148138
 C,0,-1.6604735992,-5.3949260213,1.34878603
 C,0,-3.0460549,-5.4524311397,1.362064365
 C,0,-3.784182337,-4.5514359808,0.5944217013
 C,0,-3.1386258884,-3.5712203144,-0.1667124153
 C,0,-1.7584268325,-3.4632368812,-0.1430381601
 C,0,2.280151202,-2.7489829836,-0.1925392698
 C,0,2.8906954354,-1.5219984982,0.0929483191
 C,0,3.8638314676,-0.9969444659,-0.7459430963
 C,0,4.2295525304,-1.7136739897,-1.8879743212
 C,0,3.5976272207,-2.9176932499,-2.1936587762
 C,0,2.6083005972,-3.4391920516,-1.3551988745
 H,0,3.383577451,-0.4814060854,3.9094092704
 H,0,3.2267137277,-2.1525486801,5.7603947317
 H,0,2.069490435,-4.317240662,5.3838009532
 H,0,1.1159461824,-4.8686128263,3.1815694327
 H,0,-0.4742245052,-6.6078095276,-0.5086743185
 H,0,0.7173744469,-8.7442227703,-0.7750990007
 H,0,3.0772431014,-8.9528421505,-0.0199620884
 H,0,4.2490672293,-7.0111358128,0.9988308895
 H,0,3.0834403033,-4.8854837221,1.3095603342
 H,0,-1.0834197967,-6.0878377442,1.9615495179
 H,0,-3.550449214,-6.2051772593,1.9674676271
 H,0,-4.8736314628,-4.6089400326,0.5899232549
 H,0,-3.7219422876,-2.8812154639,-0.7764038557
 H,0,-1.2590252228,-2.7039880076,-0.7389392315
 H,0,4.3303489347,-0.0379990906,-0.5148128769
 H,0,5.0020692261,-1.3211788223,-2.5506682485
 H,0,3.8712600668,-3.4620658376,-3.0983376023
 H,0,2.1189330805,-4.3744534522,-1.6253057562
 Recover connectivity data from disk.
                          Input orientation:                          
 ---------------------------------------------------------------------
 Center     Atomic      Atomic             Coordinates (Angstroms)
 Number     Number       Type             X           Y           Z
 ---------------------------------------------------------------------
      1          8           0        0.247744   -1.977585    0.776012
      2          8           0        0.873974   -0.703685    1.024492
      3          6           0        2.293107   -0.864703    1.303332
      4          1           0        2.641329    0.158305    1.482285
      5          6           0        2.383624   -1.767321    2.499467
      6          6           0        2.907047   -1.449311    3.745408
      7          6           0        2.808373   -2.382787    4.779636
      8          6           0        2.161655   -3.599200    4.568107
      9          6           0        1.623329   -3.913078    3.317492
     10          6           0        1.765987   -3.002566    2.275626
     11          6           0        1.202596   -3.077184    0.842177
     12          6           0        0.451082   -4.368819    0.618237
     13          6           0        1.177001   -5.588673    0.488990
     14          6           0        0.536903   -6.709731   -0.118858
     15          6           0        1.215059   -7.902673   -0.294843
     16          6           0        2.543033   -8.011886    0.119894
     17          6           0        3.208412   -6.917548    0.690757
     18          6           0        2.549370   -5.718968    0.859416
     19          6           0       -0.992991   -4.390894    0.603415
     20          6           0       -1.660474   -5.394926    1.348786
     21          6           0       -3.046055   -5.452431    1.362064
     22          6           0       -3.784182   -4.551436    0.594422
     23          6           0       -3.138626   -3.571220   -0.166712
     24          6           0       -1.758427   -3.463237   -0.143038
     25          6           0        2.280151   -2.748983   -0.192539
     26          6           0        2.890695   -1.521998    0.092948
     27          6           0        3.863831   -0.996944   -0.745943
     28          6           0        4.229553   -1.713674   -1.887974
     29          6           0        3.597627   -2.917693   -2.193659
     30          6           0        2.608301   -3.439192   -1.355199
     31          1           0        3.383577   -0.481406    3.909409
     32          1           0        3.226714   -2.152549    5.760395
     33          1           0        2.069490   -4.317241    5.383801
     34          1           0        1.115946   -4.868613    3.181569
     35          1           0       -0.474225   -6.607810   -0.508674
     36          1           0        0.717374   -8.744223   -0.775099
     37          1           0        3.077243   -8.952842   -0.019962
     38          1           0        4.249067   -7.011136    0.998831
     39          1           0        3.083440   -4.885484    1.309560
     40          1           0       -1.083420   -6.087838    1.961550
     41          1           0       -3.550449   -6.205177    1.967468
     42          1           0       -4.873631   -4.608940    0.589923
     43          1           0       -3.721942   -2.881215   -0.776404
     44          1           0       -1.259025   -2.703988   -0.738939
     45          1           0        4.330349   -0.037999   -0.514813
     46          1           0        5.002069   -1.321179   -2.550668
     47          1           0        3.871260   -3.462066   -3.098338
     48          1           0        2.118933   -4.374453   -1.625306
 ---------------------------------------------------------------------
                    Distance matrix (angstroms):
                    1          2          3          4          5
     1  O    0.000000
     2  O    1.441085   0.000000
     3  C    2.387485   1.455204   0.000000
     4  H    3.284828   2.018946   1.095366   0.000000
     5  C    2.752543   2.363454   1.501217   2.192967   0.000000
     6  C    4.020979   3.477460   2.585039   2.788684   1.388334
     7  C    4.769697   4.545590   3.828155   4.166242   2.399662
     8  C    4.546721   4.753876   4.260694   4.885819   2.772061
     9  C    3.478144   4.014920   3.714571   4.580444   2.418985
    10  C    2.367380   2.765118   2.407005   3.374422   1.399076
    11  C    1.457820   2.403066   2.509372   3.598343   2.420161
    12  C    2.405045   3.711750   4.017617   5.102804   3.747205
    13  C    3.739768   4.923585   4.921863   6.013206   4.483379
    14  C    4.824689   6.123190   6.266676   7.359496   5.890113
    15  C    6.098287   7.326828   7.297217   8.376861   6.842241
    16  C    6.489348   7.550751   7.248807   8.283585   6.684487
    17  C    5.759866   6.646282   6.152232   7.142534   5.520557
    18  C    4.393448   5.290298   4.881252   5.910901   4.281676
    19  C    2.719058   4.154320   4.870560   5.888625   4.677572
    20  C    3.955703   5.341941   6.012969   7.025788   5.553225
    21  C    4.823601   6.166942   7.039698   7.990065   6.659965
    22  C    4.786869   6.057109   7.143389   8.016056   7.030102
    23  C    3.859521   5.073725   6.244197   7.073643   6.392012
    24  C    2.660176   3.988456   5.025863   5.925799   5.197649
    25  C    2.379880   2.764370   2.405890   3.374583   2.867275
    26  C    2.767549   2.367398   1.501391   2.194507   2.471566
    27  C    4.044019   3.487074   2.585380   2.791794   3.649272
    28  C    4.798049   4.556582   3.828186   4.169581   4.760249
    29  C    4.574327   4.761997   4.259751   4.887620   4.982228
    30  C    3.500084   4.019181   3.714179   4.581964   4.207622
    31  H    4.678694   3.830178   2.850909   2.617460   2.154395
    32  H    5.809384   5.483007   4.732397   4.897443   3.390110
    33  H    5.479459   5.787108   5.349790   5.964842   3.862661
    34  H    3.859861   4.696611   4.576547   5.521255   3.419106
    35  H    4.859078   6.247153   6.627576   7.710441   6.375464
    36  H    6.958009   8.240952   8.299978   9.383623   7.885197
    37  H    7.569271   8.601969   8.233102   9.244445   7.645937
    38  H    6.434040   7.153729   6.457332   7.363385   5.764493
    39  H    4.096550   4.738190   4.097724   5.066074   3.410068
    40  H    4.480142   5.805046   6.254225   7.288192   5.565664
    41  H    5.806753   7.122579   7.944111   8.891986   7.429052
    42  H    5.760829   6.962387   8.117291   8.944135   8.024270
    43  H    4.357173   5.395119   6.676260   7.404835   7.017837
    44  H    2.256788   3.414760   4.491268   5.323469   4.963216
    45  H    4.700626   3.841761   2.852971   2.622923   3.983237
    46  H    5.839630   5.495838   4.732881   4.901702   5.706064
    47  H    5.508552   5.795697   5.348977   5.966734   6.034952
    48  H    3.874617   4.695305   4.574451   5.520500   4.886814
                    6          7          8          9         10
     6  C    0.000000
     7  C    1.396689   0.000000
     8  C    2.419601   1.393790   0.000000
     9  C    2.810906   2.425693   1.397266   0.000000
    10  C    2.423815   2.782222   2.401665   1.390995   0.000000
    11  C    3.739501   4.308629   3.882634   2.646302   1.541996
    12  C    4.933001   5.178647   4.372625   2.977892   2.518444
    13  C    5.543612   5.598993   4.644000   3.317717   3.197955
    14  C    6.944217   6.919340   5.855157   4.561807   4.581187
    15  C    7.799509   7.665385   6.562332   5.397454   5.560744
    16  C    7.506280   7.312342   6.277247   5.279271   5.508562
    17  C    6.270831   6.119070   5.209699   4.294072   4.463124
    18  C    5.165932   5.154154   4.289304   3.187621   3.161989
    19  C    5.808212   5.993637   5.128094   3.799954   3.512222
    20  C    6.494145   6.388607   5.310115   4.105488   4.280543
    21  C    7.559413   7.441561   6.390103   5.291167   5.476512
    22  C    8.020252   8.104371   7.214562   6.088003   6.002485
    23  C    7.507153   7.825952   7.107198   5.910394   5.508504
    24  C    6.398637   6.801158   6.130286   4.859413   4.299261
    25  C    4.193993   5.013546   4.837423   3.755909   2.533872
    26  C    3.653219   4.765792   4.987315   4.209651   2.867251
    27  C    4.614359   5.793667   6.156969   5.480437   4.189672
    28  C    5.792573   6.850145   7.036504   6.223075   5.006592
    29  C    6.156749   7.038173   6.946074   5.938133   4.830798
    30  C    5.483162   6.228340   5.942276   4.798830   3.752735
    31  H    1.091246   2.168733   3.412861   3.901950   3.412052
    32  H    2.157986   1.090829   2.156085   3.411464   3.872966
    33  H    3.407470   2.157099   1.090611   2.152218   3.388397
    34  H    3.900972   3.405503   2.151139   1.090394   2.173802
    35  H    7.492685   7.522798   6.463226   5.128436   5.076283
    36  H    8.856940   8.700300   7.556921   6.396093   6.585828
    37  H    8.397021   8.140888   7.109864   6.217048   6.511136
    38  H    6.346542   6.147495   5.360814   4.676393   4.885133
    39  H    4.215656   4.287257   3.622477   2.666324   2.492858
    40  H    6.373532   6.067542   4.849533   3.727552   4.211492
    41  H    8.214536   7.934329   6.795776   5.817582   6.214191
    42  H    8.971026   9.028989   8.144984   7.080561   7.036090
    43  H    8.151112   8.588540   7.980978   6.811508   6.280683
    44  H    6.248179   6.863058   6.377083   5.120986   4.281057
    45  H    4.708192   5.987122   6.574303   6.085290   4.811565
    46  H    6.636724   7.724809   7.995892   7.250457   6.049166
    47  H    7.198454   8.022284   7.855948   6.813184   5.789887
    48  H    6.166210   6.742799   6.241891   4.988961   4.150170
                   11         12         13         14         15
    11  C    0.000000
    12  C    1.511041   0.000000
    13  C    2.536331   1.425380   0.000000
    14  C    3.816037   2.455716   1.426877   0.000000
    15  C    4.957652   3.729008   2.443448   1.383465   0.000000
    16  C    5.164276   4.230430   2.806106   2.403574   1.395511
    17  C    4.335276   3.755549   2.435825   2.799218   2.432146
    18  C    2.965319   2.506767   1.427441   2.447173   2.807360
    19  C    2.569717   1.444318   2.481257   2.870412   4.244402
    20  C    3.718299   2.458712   2.971204   2.951467   4.154395
    21  C    4.895214   3.735968   4.314513   4.075723   5.187111
    22  C    5.206031   4.239266   5.069548   4.882498   6.083913
    23  C    4.484210   3.760094   4.808815   4.833431   6.142676
    24  C    3.144415   2.506301   3.678815   3.976035   5.345396
    25  C    1.529535   2.574242   3.121740   4.328033   5.263593
    26  C    2.414461   3.785767   4.430738   5.700682   6.608415
    27  C    3.732519   4.987724   5.461510   6.640604   7.410032
    28  C    4.298296   5.254306   5.475732   6.459568   7.066042
    29  C    3.870131   4.462429   4.493347   5.296450   5.842273
    30  C    2.633537   3.067939   3.173314   4.063946   4.794595
    31  H    4.571942   5.877357   6.530882   7.944969   8.800762
    32  H    5.398228   6.249622   6.617853   7.910032   8.589330
    33  H    4.787023   5.033141   5.135392   6.192906   6.769962
    34  H    2.947793   2.694905   2.787866   3.823327   4.615278
    35  H    4.135438   2.671928   2.181862   1.088450   2.139176
    36  H    5.913236   4.599614   3.430258   2.145315   1.089285
    37  H    6.227435   5.321399   3.897125   3.390377   2.155492
    38  H    4.978102   4.642347   3.423584   3.888475   3.416671
    39  H    2.650655   2.770232   2.191420   3.442835   3.894662
    40  H    3.942449   2.667248   2.743556   2.709297   3.697018
    41  H    5.800178   4.604876   4.991469   4.616685   5.541625
    42  H    6.271400   5.330200   6.130271   5.847185   6.978799
    43  H    5.187416   4.644579   5.738571   5.764344   7.058393
    44  H    2.949370   2.745552   3.970320   4.433491   5.774482
    45  H    4.567374   5.923556   6.462291   7.684987   8.462063
    46  H    5.388038   6.327840   6.487077   7.408638   7.921254
    47  H    4.774679   5.131544   4.964918   5.526533   5.885064
    48  H    2.934460   2.795575   2.613773   3.197769   3.877557
                   16         17         18         19         20
    16  C    0.000000
    17  C    1.402209   0.000000
    18  C    2.409233   1.378178   0.000000
    19  C    5.084176   4.903407   3.791786   0.000000
    20  C    5.101776   5.143678   4.250561   1.417460   0.000000
    21  C    6.271499   6.458759   5.624276   2.432587   1.386838
    22  C    7.227278   7.382692   6.445715   2.795819   2.406383
    23  C    7.216848   7.226206   6.165959   2.422542   2.794203
    24  C    6.265931   6.107124   4.964912   1.415497   2.442654
    25  C    5.278718   4.361056   3.162261   3.747383   4.990513
    26  C    6.499248   5.437855   4.280015   4.855323   6.106540
    27  C    7.190520   6.127579   5.157760   6.076873   7.365329
    28  C    6.822269   5.896854   5.139411   6.375695   7.662940
    29  C    5.693461   4.946734   4.274020   5.573842   6.806851
    30  C    4.805173   4.079832   3.178894   4.208469   5.418382
    31  H    8.472016   7.198217   6.118040   6.735581   7.492791
    32  H    8.161770   6.957498   6.098994   7.029263   7.338931
    33  H    6.448516   5.484833   4.760796   5.677703   5.599588
    34  H    4.614173   3.844566   2.858357   3.364924   3.368176
    35  H    3.386794   3.885407   3.435671   2.533886   2.515638
    36  H    2.161102   3.419173   3.896154   4.876179   4.624158
    37  H    1.091027   2.159803   3.392624   6.145468   6.080970
    38  H    2.164389   1.089326   2.139651   5.873772   6.136552
    39  H    3.388471   2.127867   1.087454   4.166600   4.771351
    40  H    4.499424   4.552269   3.814174   2.175391   1.090228
    41  H    6.618780   6.915176   6.218679   3.419482   2.147390
    42  H    8.173609   8.405906   7.510376   3.886784   3.393822
    43  H    8.147211   8.153180   7.075175   3.410308   3.883919
    44  H    6.585364   6.305245   5.113582   2.172174   3.429418
    45  H    8.196354   7.073919   6.110139   6.966784   8.249826
    46  H    7.612117   6.711437   6.081526   7.437213   8.728725
    47  H    5.729054   5.170780   4.743924   6.182769   7.356149
    48  H    4.056661   3.608108   2.857768   3.827733   4.916350
                   21         22         23         24         25
    21  C    0.000000
    22  C    1.394955   0.000000
    23  C    2.425836   1.398889   0.000000
    24  C    2.807172   2.414893   1.384619   0.000000
    25  C    6.172025   6.375287   5.480865   4.101551   0.000000
    26  C    7.232148   7.347310   6.373339   5.043653   1.399914
    27  C    8.487732   8.539502   7.483102   6.168945   2.425683
    28  C    8.802018   8.856361   7.791231   6.477783   2.783259
    29  C    7.950256   8.058140   7.064893   5.761074   2.401809
    30  C    6.588504   6.775097   5.870017   4.531911   1.391348
    31  H    8.517055   8.884316   8.288598   7.194015   4.815126
    32  H    8.341592   9.032973   8.812535   7.837094   6.057156
    33  H    6.605439   7.566934   7.647825   6.777036   5.796497
    34  H    4.579705   5.550243   5.567369   4.614122   4.151242
    35  H    3.383618   4.049854   4.054238   3.416314   4.751533
    36  H    5.437533   6.302306   6.480650   5.866677   6.222905
    37  H    7.187326   8.174901   8.223163   7.316735   6.257236
    38  H    7.468621   8.411110   8.232224   7.069755   4.843753
    39  H    6.155883   6.912832   6.528459   5.251334   2.732437
    40  H    2.148269   3.394656   3.884165   3.431247   5.205925
    41  H    1.089749   2.162116   3.414975   3.896642   7.113846
    42  H    2.155856   1.090975   2.158612   3.399172   7.432920
    43  H    3.411894   2.161637   1.089995   2.143664   6.031874
    44  H    3.893794   3.401078   2.147658   1.086719   3.581389
    45  H    9.340775   9.351317   8.269850   6.995975   3.414177
    46  H    9.856420   9.875443   8.775924   7.489286   3.874046
    47  H    8.467939   8.569072   7.599003   6.358236   3.388772
    48  H    6.063293   6.309143   5.514944   4.249865   2.172778
                   26         27         28         29         30
    26  C    0.000000
    27  C    1.387953   0.000000
    28  C    2.398610   1.397028   0.000000
    29  C    2.770612   2.419922   1.393713   0.000000
    30  C    2.419196   2.812850   2.426875   1.397764   0.000000
    31  H    3.986369   4.708368   5.986970   6.574858   6.088157
    32  H    5.712307   6.638808   7.726309   7.999374   7.257380
    33  H    6.039940   7.198457   8.020171   7.855688   6.817287
    34  H    4.887652   6.161659   6.734126   6.233611   4.985241
    35  H    6.127814   7.096255   6.926799   5.747705   4.500967
    36  H    7.591927   8.361899   7.937412   6.652564   5.661755
    37  H    7.434042   8.027582   7.564578   6.435742   5.692372
    38  H    5.726816   6.274005   6.033003   5.231887   4.581741
    39  H    3.581945   4.467084   4.647384   4.050819   3.068951
    40  H    6.334994   7.597566   7.885418   7.016251   5.625384
    41  H    8.181340   9.458321   9.775810   8.900423   7.524692
    42  H    8.370243   9.548524   9.868663   9.075840   7.818639
    43  H    6.806631   7.816353   8.113261   7.455605   6.381091
    44  H    4.394237   5.399788   5.694338   5.074343   3.984534
    45  H    2.155048   1.091163   2.168783   3.412923   3.903820
    46  H    3.389238   2.158181   1.090870   2.156101   3.412515
    47  H    3.861305   3.407439   2.156438   1.090715   2.152701
    48  H    3.418262   3.901989   3.406385   2.152141   1.089565
                   31         32         33         34         35
    31  H    0.000000
    32  H    2.498694   0.000000
    33  H    4.314427   2.483320   0.000000
    34  H    4.991942   4.299149   2.462333   0.000000
    35  H    8.481445   8.535076   6.814577   4.378510   0.000000
    36  H    9.865465   9.615593   7.704443   5.552876   2.460722
    37  H    9.343395   8.926301   7.190620   5.547740   4.283800
    38  H    7.201244   6.879213   5.588881   4.378493   4.974407
    39  H    5.123007   5.224882   4.236795   2.715831   4.350789
    40  H    7.428344   6.963833   4.978721   2.795026   2.596824
    41  H    9.198555   8.760139   6.842467   5.003568   3.969452
    42  H    9.810047   9.918832   8.442351   6.531393   4.955520
    43  H    8.843322   9.567890   8.576187   6.558999   4.950440
    44  H    6.935472   7.916267   7.153289   5.069169   3.988578
    45  H    4.546067   6.713238   7.630009   6.879713   8.139187
    46  H    6.712476   8.539135   8.973974   7.781053   7.880863
    47  H    7.630903   8.978163   8.713459   7.000526   5.956954
    48  H    6.883910   7.791830   7.009515   4.935203   3.599890
                   36         37         38         39         40
    36  H    0.000000
    37  H    2.486510   0.000000
    38  H    4.315469   2.486229   0.000000
    39  H    4.983366   4.279144   2.444102   0.000000
    40  H    4.217640   5.426394   5.496792   4.385598   0.000000
    41  H    5.672984   7.444854   7.900651   6.795802   2.469825
    42  H    7.086833   9.080631   9.442530   7.994332   4.293507
    43  H    7.354073   9.146900   9.151213   7.394699   4.973994
    44  H    6.355462   7.639917   7.204891   5.273735   4.332888
    45  H    9.429722   9.016073   7.135990   5.327403   8.487745
    46  H    8.752876   8.267510   6.748449   5.593458   8.950660
    47  H    6.576140   6.344721   5.433730   4.698547   7.552879
    48  H    4.667130   4.945415   4.286684   3.131272   5.104535
                   41         42         43         44         45
    41  H    0.000000
    42  H    2.489260   0.000000
    43  H    4.313579   2.485613   0.000000
    44  H    4.983331   4.296521   2.469570   0.000000
    45  H   10.310324  10.335724   8.543518   6.196679   0.000000
    46  H   10.835708  10.872081   9.038258   6.663019   2.498493
    47  H    9.395148   9.559901   7.961500   5.697479   4.313884
    48  H    6.957116   7.338813   6.088203   3.871266   4.992834
                   46         47         48
    46  H    0.000000
    47  H    2.482351   0.000000
    48  H    4.300146   2.464330   0.000000
 Stoichiometry    C27H19O2(1+)
 Framework group  C1[X(C27H19O2)]
 Deg. of freedom   138
 Full point group                 C1      NOp   1
 Largest Abelian subgroup         C1      NOp   1
 Largest concise Abelian subgroup C1      NOp   1
                         Standard orientation:                         
 ---------------------------------------------------------------------
 Center     Atomic      Atomic             Coordinates (Angstroms)
 Number     Number       Type             X           Y           Z
 ---------------------------------------------------------------------
      1          8           0       -0.448839    1.651482    1.016807
      2          8           0       -1.783073    2.178429    1.154188
      3          6           0       -2.753136    1.325768    0.483693
      4          1           0       -3.708091    1.835439    0.651390
      5          6           0       -2.329522    1.263001   -0.955148
      6          6           0       -3.043224    1.720855   -2.054452
      7          6           0       -2.444037    1.680487   -3.315439
      8          6           0       -1.136251    1.219676   -3.456858
      9          6           0       -0.413826    0.771490   -2.347992
     10          6           0       -1.029628    0.766522   -1.100743
     11          6           0       -0.431012    0.398509    0.271837
     12          6           0        1.005605   -0.050201    0.137542
     13          6           0        1.290994   -1.327893   -0.426163
     14          6           0        2.566802   -1.918570   -0.182463
     15          6           0        2.873970   -3.171565   -0.682091
     16          6           0        1.924529   -3.871384   -1.427923
     17          6           0        0.651155   -3.330520   -1.656341
     18          6           0        0.326745   -2.089299   -1.152850
     19          6           0        2.091721    0.826662    0.508377
     20          6           0        3.185832    0.960285   -0.382833
     21          6           0        4.249595    1.791704   -0.065863
     22          6           0        4.267637    2.456711    1.160245
     23          6           0        3.207061    2.314380    2.061251
     24          6           0        2.110318    1.535309    1.733573
     25          6           0       -1.352885   -0.549878    1.040076
     26          6           0       -2.647683   -0.025304    1.129961
     27          6           0       -3.641092   -0.693466    1.832181
     28          6           0       -3.330559   -1.905707    2.453251
     29          6           0       -2.033341   -2.412030    2.395824
     30          6           0       -1.030260   -1.731774    1.699532
     31          1           0       -4.055231    2.109167   -1.928467
     32          1           0       -2.997160    2.024351   -4.190493
     33          1           0       -0.665148    1.208172   -4.440404
     34          1           0        0.610239    0.423275   -2.485818
     35          1           0        3.284020   -1.408616    0.458059
     36          1           0        3.846615   -3.615515   -0.473733
     37          1           0        2.167428   -4.859763   -1.820920
     38          1           0       -0.085988   -3.891883   -2.229161
     39          1           0       -0.664734   -1.687135   -1.347246
     40          1           0        3.162940    0.453514   -1.347849
     41          1           0        5.068543    1.916167   -0.773950
     42          1           0        5.113593    3.095722    1.417633
     43          1           0        3.236246    2.824658    3.023983
     44          1           0        1.289873    1.422482    2.437205
     45          1           0       -4.645879   -0.273114    1.898098
     46          1           0       -4.103293   -2.449865    2.998018
     47          1           0       -1.790996   -3.347642    2.901353
     48          1           0       -0.020720   -2.141306    1.683239
 ---------------------------------------------------------------------
 Rotational constants (GHZ):      0.2189689      0.1621391      0.1471740
 Standard basis: CC-pVDZ (5D, 7F)
 There are   530 symmetry adapted cartesian basis functions of A   symmetry.
 There are   501 symmetry adapted basis functions of A   symmetry.
   501 basis functions,  1090 primitive gaussians,   530 cartesian basis functions
    98 alpha electrons       98 beta electrons
       nuclear repulsion energy      2681.0257129929 Hartrees.
 NAtoms=   48 NActive=   48 NUniq=   48 SFac= 1.00D+00 NAtFMM=   60 NAOKFM=F Big=F
 Integral buffers will be    131072 words long.
 Raffenetti 1 integral format.
 Two-electron integral symmetry is turned on.
 Nuclear repulsion after empirical dispersion term =     2680.9818401445 Hartrees.
 ------------------------------------------------------------------------------
 Polarizable Continuum Model (PCM)
 =================================
 Model                : C-PCM.
 Atomic radii         : UFF (Universal Force Field).
 Polarization charges : Total charges.
 Charge compensation  : None.
 Solution method      : On-the-fly selection.
 Cavity type          : Scaled VdW (van der Waals Surface) (Alpha=1.100).
 Cavity algorithm     : GePol (No added spheres)
                        Default sphere list used, NSphG=   48.
                        Lebedev-Laikov grids with approx.  5.0 points / Ang**2.
                        Smoothing algorithm: Karplus/York (Gamma=1.0000).
                        Polarization charges: spherical gaussians, with
                                              point-specific exponents (IZeta= 3).
                        Self-potential: point-specific (ISelfS= 7).
                        Self-field    : sphere-specific E.n sum rule (ISelfD= 2).
 Solvent              : n,n-DiMethylFormamide, Eps=  37.219000 Eps(inf)=   2.046330
 ------------------------------------------------------------------------------
 One-electron integrals computed using PRISM.
 NBasis=   501 RedAO= T EigKep=  1.95D-04  NBF=   501
 NBsUse=   501 1.00D-06 EigRej= -1.00D+00 NBFU=   501
 Initial guess from the checkpoint file:  "D:\Yaroslav\pink-mystery\OS10plus\conf1_singlet\OS10plus_conf1_580kjm.chk"
 B after Tr=     0.000000    0.000000    0.000000
         Rot=    1.000000    0.000000    0.000000    0.000000 Ang=   0.00 deg.
 Requested convergence on RMS density matrix=1.00D-08 within 128 cycles.
 Requested convergence on MAX density matrix=1.00D-06.
 Requested convergence on             energy=1.00D-06.
 No special actions if energy rises.
 Inv3:  Mode=1 IEnd=    33506892.
 Iteration    1 A*A^-1 deviation from unit magnitude is 4.88D-15 for   1861.
 Iteration    1 A*A^-1 deviation from orthogonality  is 3.88D-15 for   3131    290.
 Iteration    1 A^-1*A deviation from unit magnitude is 4.44D-15 for   1861.
 Iteration    1 A^-1*A deviation from orthogonality  is 2.20D-15 for   2215   1514.
 Error on total polarization charges =  0.01211
 SCF Done:  E(RwB97XD) =  -1190.13656270     A.U. after    1 cycles
            NFock=  1  Conv=0.34D-08     -V/T= 2.0065
 DoSCS=F DFT=T ScalE2(SS,OS)=  1.000000  1.000000
 ExpMin= 1.22D-01 ExpMax= 1.17D+04 ExpMxC= 4.01D+02 IAcc=3 IRadAn=         5 AccDes= 0.00D+00
 HarFok:  IExCor=  205 AccDes= 0.00D+00 IRadAn=         5 IDoV=-2 UseB2=F ITyADJ=14
 ICtDFT= 12500011 ScaDFX=  1.000000  1.000000  1.000000  1.000000
 Range of M.O.s used for correlation:    30   501
 NBasis=   501 NAE=    98 NBE=    98 NFC=    29 NFV=     0
 NROrb=    472 NOA=    69 NOB=    69 NVA=   403 NVB=   403

 **** Warning!!: The largest alpha MO coefficient is  0.12965296D+02

 Would need an additional         45091500000 words for in-memory AO integral storage.
 NEqPCM:  Using non-equilibrium solvation (IEInf=1, Eps=  37.2190, EpsInf=   2.0463)
 Inv3:  Mode=1 IEnd=    33506892.
 Iteration    1 A*A^-1 deviation from unit magnitude is 4.88D-15 for   1861.
 Iteration    1 A*A^-1 deviation from orthogonality  is 3.88D-15 for   3131    290.
 Iteration    1 A^-1*A deviation from unit magnitude is 4.44D-15 for   1861.
 Iteration    1 A^-1*A deviation from orthogonality  is 2.20D-15 for   2215   1514.
 Orbital symmetries:
       Occupied  (A) (A) (A) (A) (A) (A) (A) (A) (A) (A) (A) (A)
                 (A) (A) (A) (A) (A) (A) (A) (A) (A) (A) (A) (A)
                 (A) (A) (A) (A) (A) (A) (A) (A) (A) (A) (A) (A)
                 (A) (A) (A) (A) (A) (A) (A) (A) (A) (A) (A) (A)
                 (A) (A) (A) (A) (A) (A) (A) (A) (A) (A) (A) (A)
                 (A) (A) (A) (A) (A) (A) (A) (A) (A) (A) (A) (A)
                 (A) (A) (A) (A) (A) (A) (A) (A) (A) (A) (A) (A)
                 (A) (A) (A) (A) (A) (A) (A) (A) (A) (A) (A) (A)
                 (A) (A)
       Virtual   (A) (A) (A) (A) (A) (A) (A) (A) (A) (A) (A) (A)
                 (A) (A) (A) (A) (A) (A) (A) (A) (A) (A) (A) (A)
                 (A) (A) (A) (A) (A) (A) (A) (A) (A) (A) (A) (A)
                 (A) (A) (A) (A) (A) (A) (A) (A) (A) (A) (A) (A)
                 (A) (A) (A) (A) (A) (A) (A) (A) (A) (A) (A) (A)
                 (A) (A) (A) (A) (A) (A) (A) (A) (A) (A) (A) (A)
                 (A) (A) (A) (A) (A) (A) (A) (A) (A) (A) (A) (A)
                 (A) (A) (A) (A) (A) (A) (A) (A) (A) (A) (A) (A)
                 (A) (A) (A) (A) (A) (A) (A) (A) (A) (A) (A) (A)
                 (A) (A) (A) (A) (A) (A) (A) (A) (A) (A) (A) (A)
                 (A) (A) (A) (A) (A) (A) (A) (A) (A) (A) (A) (A)
                 (A) (A) (A) (A) (A) (A) (A) (A) (A) (A) (A) (A)
                 (A) (A) (A) (A) (A) (A) (A) (A) (A) (A) (A) (A)
                 (A) (A) (A) (A) (A) (A) (A) (A) (A) (A) (A) (A)
                 (A) (A) (A) (A) (A) (A) (A) (A) (A) (A) (A) (A)
                 (A) (A) (A) (A) (A) (A) (A) (A) (A) (A) (A) (A)
                 (A) (A) (A) (A) (A) (A) (A) (A) (A) (A) (A) (A)
                 (A) (A) (A) (A) (A) (A) (A) (A) (A) (A) (A) (A)
                 (A) (A) (A) (A) (A) (A) (A) (A) (A) (A) (A) (A)
                 (A) (A) (A) (A) (A) (A) (A) (A) (A) (A) (A) (A)
                 (A) (A) (A) (A) (A) (A) (A) (A) (A) (A) (A) (A)
                 (A) (A) (A) (A) (A) (A) (A) (A) (A) (A) (A) (A)
                 (A) (A) (A) (A) (A) (A) (A) (A) (A) (A) (A) (A)
                 (A) (A) (A) (A) (A) (A) (A) (A) (A) (A) (A) (A)
                 (A) (A) (A) (A) (A) (A) (A) (A) (A) (A) (A) (A)
                 (A) (A) (A) (A) (A) (A) (A) (A) (A) (A) (A) (A)
                 (A) (A) (A) (A) (A) (A) (A) (A) (A) (A) (A) (A)
                 (A) (A) (A) (A) (A) (A) (A) (A) (A) (A) (A) (A)
                 (A) (A) (A) (A) (A) (A) (A) (A) (A) (A) (A) (A)
                 (A) (A) (A) (A) (A) (A) (A) (A) (A) (A) (A) (A)
                 (A) (A) (A) (A) (A) (A) (A) (A) (A) (A) (A) (A)
                 (A) (A) (A) (A) (A) (A) (A) (A) (A) (A) (A) (A)
                 (A) (A) (A) (A) (A) (A) (A) (A) (A) (A) (A) (A)
                 (A) (A) (A) (A) (A) (A) (A)
   240 initial guesses have been made.
 Convergence on wavefunction:    0.001000000000000
 Iteration     1 Dimension   240 NMult     0 NNew    240
 CISAX will form   240 AO SS matrices at one time.
 New state      1 was old state      2
 New state      2 was old state      1
 New state      4 was old state      5
 New state      5 was old state      4
 New state      7 was old state      8
 New state      8 was old state      7
 New state     11 was old state     19
 New state     12 was old state     25
 New state     13 was old state     15
 New state     14 was old state     28
 New state     15 was old state     18
 New state     16 was old state     11
 New state     17 was old state     86
 New state     18 was old state     34
 New state     19 was old state     14
 New state     20 was old state     12
 New state     21 was old state     32
 New state     22 was old state     29
 New state     23 was old state     41
 New state     24 was old state     21
 New state     25 was old state     17
 New state     26 was old state     16
 New state     27 was old state     30
 New state     28 was old state     13
 New state     29 was old state     43
 New state     30 was old state     24
 New state     31 was old state     26
 New state     32 was old state     54
 New state     33 was old state     20
 New state     34 was old state     31
 New state     35 was old state     23
 New state     36 was old state     33
 New state     37 was old state     40
 New state     38 was old state     42
 New state     39 was old state     47
 New state     40 was old state     35
 New state     41 was old state     61
 New state     42 was old state     27
 New state     43 was old state     36
 New state     44 was old state     45
 New state     45 was old state     37
 New state     46 was old state     64
 New state     47 was old state     38
 New state     48 was old state     53
 New state     49 was old state     57
 New state     50 was old state     58
 New state     51 was old state     70
 New state     52 was old state     44
 New state     53 was old state     39
 New state     54 was old state     46
 New state     55 was old state     48
 New state     56 was old state     84
 New state     57 was old state     63
 New state     58 was old state     49
 New state     60 was old state     71
 Iteration     2 Dimension   360 NMult   240 NNew    120
 New state      5 was old state      6
 New state      6 was old state      5
 New state     15 was old state     17
 New state     16 was old state     15
 New state     17 was old state     16
 New state     18 was old state     19
 New state     19 was old state     18
 New state     25 was old state     33
 New state     26 was old state     28
 New state     27 was old state     31
 New state     28 was old state     25
 New state     30 was old state     26
 New state     31 was old state     40
 New state     32 was old state     27
 New state     33 was old state     34
 New state     34 was old state     30
 New state     35 was old state     32
 New state     36 was old state     35
 New state     37 was old state     38
 New state     38 was old state     37
 New state     40 was old state     45
 New state     41 was old state     36
 New state     42 was old state     44
 New state     43 was old state     42
 New state     44 was old state     41
 New state     45 was old state     43
 New state     46 was old state     54
 New state     49 was old state     46
 New state     51 was old state     49
 New state     53 was old state     58
 New state     54 was old state     56
 New state     55 was old state     51
 New state     56 was old state     60
 New state     57 was old state     53
 New state     58 was old state     55
 New state     59 was old state     68
 New state     60 was old state     61
 Iteration     3 Dimension   480 NMult   360 NNew    120
 New state     50 was old state     51
 New state     51 was old state     50
 New state     53 was old state     54
 New state     54 was old state     53
 Iteration     4 Dimension   598 NMult   480 NNew    118
 Iteration     5 Dimension   672 NMult   598 NNew     74
 Iteration     6 Dimension   688 NMult   672 NNew     16
 Iteration     7 Dimension   690 NMult   688 NNew      2
 Iteration     8 Dimension   692 NMult   690 NNew      2
 ***********************************************************************
 Excited states from <AA,BB:AA,BB> singles matrix:
 ***********************************************************************
 
 Ground to excited state transition densities written to RWF  633
 Ground to excited state transition electric dipole moments (Au):
       state          X           Y           Z        Dip. S.      Osc.
         1        -0.6526      0.3886      0.1213      0.5917      0.0396
         2         0.5998      1.1940      0.4543      1.9917      0.1401
         3         0.9167      1.3918      0.6125      3.1527      0.2372
         4        -0.1607      0.6055      0.4470      0.5923      0.0450
         5         0.3141      1.0312      0.1808      1.1946      0.0970
         6        -0.1421     -0.4234      0.1436      0.2200      0.0184
         7        -0.3648     -0.2036     -0.3647      0.3075      0.0269
         8        -0.0448     -0.0933     -0.0515      0.0134      0.0012
         9         1.0426     -0.9835     -0.3093      2.1501      0.2325
        10        -0.1600     -0.4533     -0.3612      0.3615      0.0426
        11         0.0272     -0.0515     -0.0932      0.0121      0.0014
        12         0.0472     -0.0556      0.0454      0.0074      0.0010
        13        -0.4901     -0.0154     -0.1065      0.2517      0.0327
        14        -0.0019     -0.0962     -0.0575      0.0126      0.0017
        15        -0.0148     -0.1303      0.0826      0.0240      0.0032
        16         0.0568     -0.2416     -0.0241      0.0622      0.0084
        17        -0.2770     -0.0969     -0.0068      0.0862      0.0118
        18        -0.1351     -0.2161      0.2253      0.1157      0.0158
        19        -0.4001     -0.2572     -0.2814      0.3055      0.0432
        20        -0.1203      0.1468      0.0062      0.0360      0.0052
        21        -0.2629     -0.0754     -0.1805      0.1074      0.0156
        22        -0.4353      0.3868      0.5307      0.6208      0.0926
        23        -0.0675      0.3214     -0.2581      0.1745      0.0261
        24         0.2579      0.2281     -0.3616      0.2493      0.0377
        25         0.0634      0.1861      0.1060      0.0499      0.0075
        26         0.1217      0.5161     -1.1247      1.5462      0.2371
        27         0.2564      1.3992     -1.9872      5.9722      0.9207
        28         0.5470      0.3196     -0.0438      0.4033      0.0627
        29         0.0686     -0.7161     -0.2931      0.6034      0.0950
        30        -0.0415      0.5545      0.0068      0.3092      0.0490
        31        -0.0095      0.0337     -0.3149      0.1004      0.0160
        32         0.3214      0.2859      0.1143      0.1981      0.0318
        33        -0.1331     -0.3245     -0.2604      0.1909      0.0311
        34         0.0833     -0.7081     -0.2768      0.5850      0.0958
        35        -0.9234      0.3873      0.0730      1.0081      0.1658
        36         1.1295     -0.6426     -0.2265      1.7399      0.2875
        37        -1.1586     -0.2379     -0.2300      1.4520      0.2408
        38         0.2324      0.7555      0.4762      0.8516      0.1416
        39         1.7629     -0.1004      0.4425      3.3136      0.5535
        40         0.7742      0.6060     -0.0251      0.9673      0.1623
        41         0.5425      0.2364      0.2186      0.3980      0.0671
        42         0.2480     -0.3170     -0.8882      0.9508      0.1614
        43         1.0209      0.0030      0.6160      1.4218      0.2427
        44        -0.0853     -0.2111      0.2489      0.1138      0.0195
        45        -1.1750      0.2096      0.7462      1.9813      0.3413
        46         0.0314      0.2714     -0.3031      0.1665      0.0288
        47         0.0694      0.0487     -0.2935      0.0933      0.0162
        48        -0.2650     -0.1227     -0.0072      0.0853      0.0149
        49        -0.8558      0.2120      0.2089      0.8209      0.1436
        50         0.2996     -0.7808     -0.5133      0.9629      0.1698
        51        -0.1147     -0.6616      0.0904      0.4590      0.0810
        52         0.1435     -0.1849     -0.0958      0.0640      0.0114
        53        -0.2026      0.2166      0.0819      0.0947      0.0169
        54         0.0938      0.0160     -0.4449      0.2070      0.0370
        55        -0.5658     -0.0585     -0.5219      0.5959      0.1074
        56         0.4053      0.3931     -0.2079      0.3621      0.0654
        57        -0.3236      0.0569      0.1892      0.1438      0.0260
        58        -0.0798      0.2087     -0.1721      0.0796      0.0145
        59         0.0772     -0.1861      0.1391      0.0599      0.0109
        60        -0.0297     -0.3101     -0.0828      0.1039      0.0190
 Ground to excited state transition velocity dipole moments (Au):
       state          X           Y           Z        Dip. S.      Osc.
         1         0.0655     -0.0357     -0.0130      0.0057      0.0381
         2        -0.0637     -0.1242     -0.0489      0.0219      0.1382
         3        -0.1019     -0.1551     -0.0677      0.0390      0.2305
         4         0.0227     -0.0701     -0.0515      0.0081      0.0473
         5        -0.0361     -0.1201     -0.0174      0.0160      0.0877
         6         0.0160      0.0514     -0.0175      0.0032      0.0170
         7         0.0506      0.0251      0.0469      0.0054      0.0273
         8         0.0063      0.0120      0.0067      0.0002      0.0011
         9        -0.1650      0.1562      0.0485      0.0540      0.2220
        10         0.0276      0.0777      0.0651      0.0110      0.0416
        11        -0.0021      0.0158      0.0050      0.0003      0.0011
        12        -0.0088      0.0119     -0.0105      0.0003      0.0011
        13         0.0959      0.0031      0.0195      0.0096      0.0328
        14         0.0007      0.0195      0.0109      0.0005      0.0017
        15         0.0021      0.0238     -0.0142      0.0008      0.0026
        16        -0.0110      0.0477      0.0026      0.0024      0.0079
        17         0.0562      0.0209      0.0003      0.0036      0.0117
        18         0.0267      0.0419     -0.0425      0.0043      0.0139
        19         0.0870      0.0506      0.0581      0.0135      0.0424
        20         0.0265     -0.0288     -0.0015      0.0015      0.0048
        21         0.0558      0.0141      0.0395      0.0049      0.0149
        22         0.1001     -0.0862     -0.1157      0.0308      0.0919
        23         0.0153     -0.0718      0.0587      0.0088      0.0263
        24        -0.0569     -0.0534      0.0824      0.0129      0.0379
        25        -0.0139     -0.0401     -0.0234      0.0023      0.0069
        26        -0.0294     -0.1184      0.2565      0.0807      0.2339
        27        -0.0570     -0.3187      0.4540      0.3109      0.8963
        28        -0.1250     -0.0759      0.0088      0.0215      0.0614
        29        -0.0154      0.1689      0.0691      0.0336      0.0947
        30         0.0066     -0.1305     -0.0001      0.0171      0.0479
        31         0.0032     -0.0079      0.0727      0.0054      0.0149
        32        -0.0766     -0.0674     -0.0261      0.0111      0.0308
        33         0.0306      0.0801      0.0627      0.0113      0.0308
        34        -0.0203      0.1722      0.0665      0.0345      0.0936
        35         0.2255     -0.0907     -0.0166      0.0594      0.1604
        36        -0.2739      0.1556      0.0541      0.1022      0.2748
        37         0.2825      0.0605      0.0571      0.0867      0.2324
        38        -0.0566     -0.1805     -0.1123      0.0484      0.1293
        39        -0.4317      0.0276     -0.1088      0.1989      0.5293
        40        -0.1933     -0.1514      0.0048      0.0603      0.1598
        41        -0.1355     -0.0576     -0.0551      0.0247      0.0652
        42        -0.0605      0.0800      0.2234      0.0600      0.1570
        43        -0.2599     -0.0021     -0.1573      0.0923      0.2403
        44         0.0204      0.0530     -0.0638      0.0073      0.0189
        45         0.2967     -0.0552     -0.1906      0.1274      0.3287
        46        -0.0098     -0.0689      0.0750      0.0105      0.0269
        47        -0.0194     -0.0150      0.0756      0.0063      0.0162
        48         0.0681      0.0322      0.0023      0.0057      0.0145
        49         0.2246     -0.0565     -0.0545      0.0566      0.1438
        50        -0.0805      0.2086      0.1350      0.0682      0.1719
        51         0.0303      0.1717     -0.0223      0.0309      0.0778
        52        -0.0401      0.0484      0.0268      0.0047      0.0117
        53         0.0549     -0.0574     -0.0229      0.0068      0.0170
        54        -0.0253     -0.0045      0.1184      0.0147      0.0365
        55         0.1517      0.0129      0.1391      0.0425      0.1048
        56        -0.1106     -0.1029      0.0553      0.0259      0.0637
        57         0.0863     -0.0129     -0.0511      0.0102      0.0251
        58         0.0215     -0.0544      0.0481      0.0057      0.0140
        59        -0.0221      0.0478     -0.0363      0.0041      0.0100
        60         0.0076      0.0799      0.0198      0.0068      0.0166
 Ground to excited state transition magnetic dipole moments (Au):
       state          X           Y           Z
         1        -0.0922     -0.0656      0.1724
         2         0.1738      0.3296     -0.6786
         3         0.1653      0.3639     -0.4819
         4        -0.2710      0.4228      0.0106
         5         0.0668     -0.4366      0.3768
         6         0.2630      0.0752      0.0924
         7        -0.1954     -0.3387      0.3929
         8        -0.0618      0.0154     -0.0012
         9        -0.0300     -0.1812      0.4125
        10        -0.0819      0.0966      0.3659
        11         0.0609      0.0309      0.1172
        12         0.2656      0.5545      0.4333
        13         0.2546      0.2524     -0.0116
        14        -0.0307      0.0512     -0.2089
        15         0.4398      0.8973      0.5954
        16         0.0686     -0.3930     -0.2203
        17        -0.0277     -0.0569      0.0894
        18        -0.3083     -0.8188     -0.4932
        19         0.0699     -0.2938      0.3961
        20         0.0411      0.3773     -0.2428
        21        -0.0695      0.1204      0.0967
        22        -0.3300      0.0814     -0.5693
        23         0.2468      0.6521      0.2995
        24         0.1708      0.4411      0.1343
        25         0.0649      0.2263     -0.3118
        26         0.4709      0.9182      0.7064
        27         0.9657      1.6358      0.9423
        28         0.0566      0.0898      0.1252
        29        -0.1301     -0.2907      0.3888
        30         0.0305     -0.0452     -0.0689
        31        -0.6731     -1.6167     -0.9457
        32        -0.1599     -0.2209     -0.3173
        33        -0.2467     -0.6769     -0.1954
        34        -0.1247      0.1621     -0.0286
        35        -0.1745     -0.2326      0.5325
        36         0.1998     -0.0686     -0.0869
        37        -0.1572      0.6013     -0.8079
        38        -0.1197     -0.1928      0.3632
        39        -0.0046      0.8665     -1.6199
        40         0.0205     -1.2188     -0.0680
        41         0.1042      0.1023     -0.4929
        42         0.7099     -0.8404      0.7672
        43         0.3071      1.6834     -1.1306
        44        -0.1416      0.9184     -0.2764
        45        -0.6020      0.8020     -0.6492
        46         0.6614     -0.6414      0.0760
        47         0.2699      0.2113      0.2484
        48         0.0441     -0.1962      1.0739
        49         0.1463      0.0294      0.4021
        50         0.3315     -0.2970     -0.1479
        51         0.0308     -0.7594     -0.1911
        52        -0.2841     -0.7019      0.6438
        53         0.0970      0.1106     -0.1165
        54        -0.0754     -0.3506      0.5627
        55        -0.0503      0.0604      0.8474
        56         0.4462      0.4761      0.0809
        57        -0.2299      0.0946     -0.2301
        58         0.3207      0.9204      0.1090
        59         0.0870      0.1275      0.0828
        60        -0.1535      0.1722     -0.9532
 Ground to excited state transition velocity quadrupole moments (Au):
       state          XX          YY          ZZ          XY          XZ          YZ
         1         0.0313      0.1867     -0.1144     -0.0974     -0.0089      0.1468
         2        -0.4619      0.3035     -0.0189     -0.5135     -0.2592      0.1232
         3        -0.6513      0.3263      0.0684     -0.7347     -0.3282      0.0122
         4         0.0617      0.1172     -0.1300     -0.4416     -0.2372     -0.0665
         5        -0.5135      0.2631      0.0011     -0.8404     -0.1159      0.0719
         6        -0.0037     -0.0481      0.0373      0.0618      0.2434      0.0131
         7         0.4180     -0.0341     -0.0194      0.0567      0.0444     -0.0634
         8         0.1167     -0.0475      0.0007      0.0811     -0.0168      0.0107
         9        -0.1501     -1.2011      0.2007      0.4159      0.0716     -0.7689
        10         0.3707     -0.3145     -0.0314      0.6032     -0.0511     -0.0848
        11         0.0729      0.0320     -0.0617      0.1097     -0.0142     -0.0653
        12        -0.1116      0.0565      0.0126     -0.1738      0.3167     -0.1439
        13         0.2298      0.2752     -0.1034      0.1993      0.0821      0.3859
        14         0.0895      0.0658     -0.1543     -0.1079     -0.0486      0.1930
        15        -0.1112      0.1408     -0.0369     -0.2144      0.4957     -0.1394
        16         0.1099     -0.3114      0.1357      0.2318      0.0041     -0.0670
        17         0.0966      0.1496     -0.0597      0.0761      0.1572      0.1067
        18         0.0832     -0.0738      0.0869      0.0934      0.0231      0.1002
        19         0.2714      0.1522     -0.0263      0.2513      0.2475      0.2078
        20        -0.1622     -0.0331     -0.2403     -0.0910     -0.1336      0.0980
        21         0.3757      0.1070     -0.1273      0.2802      0.0512      0.0782
        22         0.0215      0.4713     -0.2147     -0.5391     -0.0920      0.2979
        23         0.0844      0.3089     -0.3453     -0.0371     -0.1959      0.0256
        24         0.0869     -0.1360     -0.0844      0.1741     -0.2285     -0.2054
        25         0.1601      0.3109      0.0915     -0.0789     -0.0704     -0.0538
        26         0.7891      0.2333     -0.6149      0.9183     -1.0148     -0.2393
        27         0.5473      0.5856     -1.1053      1.3167     -2.1579     -0.0580
        28        -0.1818      0.0490      0.1482     -0.0469     -0.3739     -0.3462
        29         0.8397     -0.4098      0.3487      0.8520      0.0896     -0.4020
        30        -0.2165      0.2885     -0.1725     -0.4507     -0.2228      0.1153
        31         0.4757     -0.5309      0.1094      0.8562     -1.2022      0.4348
        32         0.0301      0.0073      0.1513     -0.1321     -0.5308     -0.1518
        33         0.4675     -0.4199     -0.1468      0.6267     -0.2078      0.1584
        34         1.0709     -0.6969     -0.7014      0.1751      0.1351      0.0512
        35        -0.6666      0.3103     -0.1305      0.1227     -0.1463      0.1129
        36         1.0547     -0.9457      0.4157      0.6723      0.5425     -0.6054
        37         0.1997      0.2376     -2.0796     -0.3287     -0.4004      1.7380
        38        -0.5749      0.3702      0.1835     -1.2884     -0.3616     -0.2533
        39         0.5814     -0.4882     -0.2380     -0.8489     -0.6617     -0.0983
        40        -1.4370     -0.0587      1.1815      0.1211     -0.4218     -0.2764
        41        -0.6544     -0.0446      0.1891     -0.4334     -0.2359      0.1600
        42        -0.5122      0.1905      0.1908      0.3327      1.0845      0.8461
        43        -0.3658     -0.2374      0.0469      0.1713     -0.0780     -0.3729
        44         0.9172     -0.3245     -0.2731      0.0350     -0.0795     -0.4839
        45         2.1614      0.9041      0.1644      1.1230     -0.4508     -0.1307
        46        -2.6006      1.1371      0.4521      0.1664      0.6631      1.3344
        47         0.9142      0.6463     -0.4774     -0.2477      0.2252      0.3745
        48         0.5775      0.1852      0.1733     -0.7224      0.7899     -0.3127
        49        -2.6133     -0.0766      0.6522      1.0124      0.3394     -0.3169
        50         2.3107      0.5212     -0.0382      0.4527      0.8843      0.8421
        51         0.8522      0.0516      0.3306      0.6872      1.0195      0.4286
        52        -1.2725     -1.5130     -0.1615     -1.2219     -0.0675     -0.6776
        53         0.5332      1.5278      0.6302      0.7038      0.4397      0.6276
        54         1.0962      0.4636      0.1581      0.0304      0.2174     -0.1190
        55         1.6265     -0.1308     -0.6183     -0.0769     -0.3478     -0.4208
        56        -0.3560      0.3460      0.1541      0.5700     -0.3264     -0.0750
        57         0.9470      0.4538      0.5941      1.0837     -0.1112     -0.0218
        58        -0.4671      0.5343     -0.6885     -0.4608      0.1525      0.3271
        59         0.4931      0.3120      0.1227     -0.3638      0.7965      0.0017
        60        -0.4398     -0.9303     -2.2386     -1.2632     -0.3743      1.4845
 <0|del|b> * <b|rxdel|0> + <0|del|b> * <b|delr+rdel|0>
 Rotatory Strengths (R) in cgs (10**-40 erg-esu-cm/Gauss)
       state          XX          YY          ZZ    R(velocity)    E-M Angle
         1         3.6915      0.2186    -45.7568    -13.9489      112.37
         2       -49.6088    -36.2745    -40.0550    -41.9794       99.45
         3       -78.0819   -110.3283    -66.2535    -84.8879      109.18
         4       -74.7382    -96.0710    -54.7946    -75.2013      143.56
         5       135.1439    -75.9389    193.0850     84.0967       53.74
         6       -31.9270     10.9302     57.3489     12.1174       66.72
         7        30.7942      7.1323    -37.8575      0.0230       90.00
         8         2.3211     -2.1995     -1.1979     -0.3588      102.81
         9         1.5058    287.1569   -303.2422     -4.8598       91.83
        10       149.2631    -40.1465      7.2271     38.7812       44.39
        11         3.6910      0.0939     -0.0111      1.2579       65.32
        12         0.1975    -13.5932     12.3962     -0.3332       91.15
        13         7.6143    104.0658    -20.9728     30.2358       44.67
        14        -2.6407     -1.7273     -0.2036     -1.5239      105.41
        15         7.2893    -19.2371     60.6601     16.2374       64.75
        16       -33.1201     -2.0765    -35.1023    -23.4330      153.95
        17        -7.6513      7.6684     -9.4087     -3.1305      114.47
        18       -31.5503     33.4241    -76.3348    -24.8203      109.19
        19        17.1010     54.2582    -23.8800     15.8264       75.75
        20       -23.4777      6.4597    -14.0757    -10.3646      122.25
        21        25.7412    -10.9600     -9.4239      1.7858       81.97
        22       179.1308      0.4497    -97.8615     27.2397       77.17
        23       -71.7900     37.7496    -46.3251    -26.7885      110.92
        24       -16.1539     -2.0499    -51.1070    -23.1036      113.45
        25        -4.2713      8.2554    -12.3166     -2.7775       98.12
        26       289.0298    -94.0115    -14.4948     60.1745       80.49
        27      -280.3309   -339.0725    165.1445   -151.4196       97.22
        28       -52.3542     57.2151    -43.6863    -12.9418      122.15
        29        32.2561    -35.7015    -57.0952    -20.1802      102.69
        30       -34.4152      1.3795     51.2019      6.0554       57.85
        31        -4.7541   -194.4042     27.7174    -57.1470      113.50
        32       -13.4669     42.2130     75.4017     34.7160       36.51
        33       -15.2352    -78.4497   -120.4165    -71.3672      158.99
        34        20.7105    -17.3592     78.8007     27.3840       41.91
        35        -4.3547    -29.6435    -43.6531    -25.8837      100.56
        36       -90.5149     99.8889   -209.3907    -66.6722      163.76
        37        -6.1853    595.8501   -743.7540    -51.3631      100.40
        38       104.0735   -232.9859    131.1335      0.7404       89.52
        39       438.4061    181.0033    -49.1317    190.0926       75.72
        40       169.8742     68.2198    268.3351    168.8097       53.05
        41        44.1783    -45.4792     21.3366      6.6786       84.92
        42       127.4287      4.1211     38.5339     56.6946       79.25
        43       203.3399    306.3962   -248.6244     87.0372       81.27
        44        93.9481      9.7375     70.7982     58.1612       40.01
        45      -218.1978    164.8154   -217.8267    -90.4030      103.44
        46       147.4265    -36.0547      7.0005     39.4574       62.70
        47         0.3531     33.9581     -6.1161      9.3984       72.02
        48       -41.8545    -19.2242     58.7384     -0.7801       90.60
        49       -80.3214     -6.7965    112.1364      8.3395       84.78
        50      -274.3309   -234.6838    218.6907    -96.7747      152.45
        51      -422.8277     44.7841     43.5558   -111.4959      155.34
        52       -61.3579    117.6006    -70.4409     -4.7327       94.51
        53         7.1743     77.5448    -80.3626      1.4522       83.91
        54        96.0827     89.6944     -0.6585     61.7062       29.85
        55       146.9784     74.6016     68.6690     96.7497       50.77
        56       -60.8111    -88.8574    -95.3252    -81.6646      152.56
        57       -60.2159     59.1086    -23.1016     -8.0697      105.75
        58       -76.0172     53.5363    -75.7738    -32.7516      120.71
        59       -28.1520    -23.4604     54.6233      1.0037       84.03
        60        -0.2202     20.8283    -36.7043     -5.3654       94.42
 1/2[<0|r|b>*<b|rxdel|0> + (<0|rxdel|b>*<b|r|0>)*]
 Rotatory Strengths (R) in cgs (10**-40 erg-esu-cm/Gauss)
       state          XX          YY          ZZ     R(length)
         1       -42.5611     18.0204    -14.7897    -13.1101
         2       -73.7037   -278.2663    218.0028    -44.6557
         3      -107.1800   -358.1638    208.7249    -85.5396
         4       -30.8062   -181.0635     -3.3523    -71.7407
         5       -14.8438    318.3579    -48.1795     85.1115
         6        26.4232     22.5270     -9.3820     13.1894
         7       -50.3979    -48.7642    101.3273      0.7217
         8        -1.9562      1.0134     -0.0424     -0.3284
         9        22.1326   -126.0538     90.2297     -4.5638
        10        -9.2704     30.9610     93.4489     38.3798
        11        -1.1689      1.1233      7.7297      2.5614
        12        -8.8624     21.8071    -13.9265     -0.3273
        13        88.2291      2.7480     -0.8747     30.0341
        14        -0.0412      3.4881     -8.4875     -1.6802
        15         4.6098     82.6867    -34.7613     17.5117
        16        -2.7524    -67.1581     -3.7569    -24.5558
        17        -5.4254     -3.9000      0.4281     -2.9658
        18       -29.4540   -125.1407     78.5912    -25.3345
        19        19.7816    -53.4464     78.8105     15.0486
        20         3.4993    -39.1525      1.0573    -11.5320
        21       -12.9126      6.4168     12.3480      1.9508
        22      -101.5924    -22.2725    213.6799     29.9383
        23        11.7774   -148.1874     54.6795    -27.2435
        24       -31.1543    -71.1590     34.3403    -22.6577
        25        -2.9101    -29.7734     23.3611     -3.1075
        26       -40.5241   -335.1293    561.8840     62.0769
        27      -175.0795  -1618.4863   1324.1108   -156.4850
        28       -21.9028    -20.2946      3.8807    -12.7722
        29         6.3127   -147.2009     80.5701    -20.1061
        30         0.8935     17.7345      0.3291      6.3190
        31        -4.5348     38.4972   -210.5657    -58.8678
        32        36.3442     44.6713     25.6503     35.5553
        33       -23.2232   -155.3403    -35.9949    -71.5194
        34         7.3499     81.1707     -5.6081     27.6375
        35      -113.9559     63.7146    -27.5059    -25.9157
        36      -159.6126    -31.1786    -13.9243    -68.2385
        37      -128.8087    101.1798   -131.4241    -53.0177
        38        19.6738    103.0126   -122.3361      0.1168
        39         5.6911     61.5477    506.9091    191.3826
        40       -11.2182    522.2969     -1.2088    169.9566
        41       -39.9748    -17.1004     76.2158      6.3802
        42      -124.4891   -188.3840    481.8707     56.3326
        43      -221.6885     -3.5140    492.5257     89.1077
        44        -8.5449    137.0937     48.6485     59.0658
        45      -500.1845   -118.8534    342.5570    -92.1603
        46       -14.6743    123.1072     16.2833     41.5721
        47       -13.2421     -7.2719     51.5630     10.3497
        48         8.2610    -17.0155      5.4836     -1.0903
        49        88.5597     -4.4062    -59.3891      8.2548
        50       -70.2452   -163.9721    -53.6925    -95.9699
        51         2.4979   -355.2935     12.2103   -113.5285
        52        28.8297    -91.7856     43.6356     -6.4401
        53        13.8951    -16.9427      6.7488      1.2338
        54         5.0053      3.9650    177.0213     61.9972
        55       -20.1080      2.4991    312.7356     98.3756
        56      -127.8943   -132.3640     11.8921    -82.7888
        57       -52.6156     -3.8048     30.7894     -8.5437
        58        18.0952   -135.8403     13.2657    -34.8265
        59        -4.7502     16.7754     -8.1430      1.2940
        60        -3.2183     37.7596    -55.8422     -7.1003
  1/2[<0|del|b>*<b|r|0> + (<0|r|b>*<b|del|0>)*] (Au)
       state          X           Y           Z        Dip. S.   Osc.(frdel)
         1        -0.0427     -0.0139     -0.0016      0.0582      0.0388
         2        -0.0382     -0.1483     -0.0222      0.2087      0.1392
         3        -0.0934     -0.2158     -0.0415      0.3507      0.2338
         4        -0.0036     -0.0424     -0.0230      0.0691      0.0461
         5        -0.0113     -0.1238     -0.0031      0.1383      0.0922
         6        -0.0023     -0.0217     -0.0025      0.0265      0.0177
         7        -0.0185     -0.0051     -0.0171      0.0407      0.0271
         8        -0.0003     -0.0011     -0.0003      0.0017      0.0012
         9        -0.1721     -0.1536     -0.0150      0.3407      0.2272
        10        -0.0044     -0.0352     -0.0235      0.0631      0.0421
        11        -0.0001     -0.0008     -0.0005      0.0013      0.0009
        12        -0.0004     -0.0007     -0.0005      0.0016      0.0010
        13        -0.0470      0.0000     -0.0021      0.0491      0.0327
        14         0.0000     -0.0019     -0.0006      0.0025      0.0017
        15         0.0000     -0.0031     -0.0012      0.0043      0.0029
        16        -0.0006     -0.0115     -0.0001      0.0122      0.0081
        17        -0.0156     -0.0020      0.0000      0.0176      0.0117
        18        -0.0036     -0.0091     -0.0096      0.0222      0.0148
        19        -0.0348     -0.0130     -0.0164      0.0642      0.0428
        20        -0.0032     -0.0042      0.0000      0.0074      0.0050
        21        -0.0147     -0.0011     -0.0071      0.0229      0.0152
        22        -0.0436     -0.0333     -0.0614      0.1383      0.0922
        23        -0.0010     -0.0231     -0.0151      0.0393      0.0262
        24        -0.0147     -0.0122     -0.0298      0.0567      0.0378
        25        -0.0009     -0.0075     -0.0025      0.0108      0.0072
        26        -0.0036     -0.0611     -0.2885      0.3532      0.2355
        27        -0.0146     -0.4458     -0.9021      1.3626      0.9084
        28        -0.0684     -0.0243     -0.0004      0.0930      0.0620
        29        -0.0011     -0.1210     -0.0203      0.1423      0.0949
        30        -0.0003     -0.0724      0.0000      0.0726      0.0484
        31         0.0000     -0.0003     -0.0229      0.0232      0.0155
        32        -0.0246     -0.0193     -0.0030      0.0469      0.0313
        33        -0.0041     -0.0260     -0.0163      0.0464      0.0309
        34        -0.0017     -0.1220     -0.0184      0.1421      0.0947
        35        -0.2083     -0.0351     -0.0012      0.2446      0.1631
        36        -0.3094     -0.1000     -0.0122      0.4216      0.2811
        37        -0.3273     -0.0144     -0.0131      0.3548      0.2366
        38        -0.0131     -0.1363     -0.0535      0.2030      0.1353
        39        -0.7610     -0.0028     -0.0481      0.8119      0.5412
        40        -0.1497     -0.0918     -0.0001      0.2415      0.1610
        41        -0.0735     -0.0136     -0.0121      0.0992      0.0661
        42        -0.0150     -0.0254     -0.1984      0.2388      0.1592
        43        -0.2654      0.0000     -0.0969      0.3623      0.2415
        44        -0.0017     -0.0112     -0.0159      0.0288      0.0192
        45        -0.3486     -0.0116     -0.1423      0.5024      0.3349
        46        -0.0003     -0.0187     -0.0227      0.0417      0.0278
        47        -0.0013     -0.0007     -0.0222      0.0243      0.0162
        48        -0.0180     -0.0039      0.0000      0.0220      0.0147
        49        -0.1922     -0.0120     -0.0114      0.2156      0.1437
        50        -0.0241     -0.1628     -0.0693      0.2562      0.1708
        51        -0.0035     -0.1136     -0.0020      0.1191      0.0794
        52        -0.0058     -0.0090     -0.0026      0.0173      0.0115
        53        -0.0111     -0.0124     -0.0019      0.0254      0.0169
        54        -0.0024     -0.0001     -0.0527      0.0551      0.0367
        55        -0.0859     -0.0008     -0.0726      0.1592      0.1061
        56        -0.0448     -0.0405     -0.0115      0.0968      0.0645
        57        -0.0279     -0.0007     -0.0097      0.0383      0.0255
        58        -0.0017     -0.0114     -0.0083      0.0214      0.0142
        59        -0.0017     -0.0089     -0.0050      0.0156      0.0104
        60        -0.0002     -0.0248     -0.0016      0.0266      0.0178

 Excitation energies and oscillator strengths:
 
 Excited State   1:      Singlet-A      2.7318 eV  453.86 nm  f=0.0396  <S**2>=0.000
      96 -> 99         0.13908
      97 -> 99         0.62897
      98 -> 99         0.25335
 This state for optimization and/or second-order correction.
 Total Energy, E(TD-HF/TD-KS) =  -1190.03617137    
 Copying the excited state density for this state as the 1-particle RhoCI density.
 
 Excited State   2:      Singlet-A      2.8713 eV  431.80 nm  f=0.1401  <S**2>=0.000
      91 -> 99        -0.10548
      96 -> 99         0.48709
      98 -> 99        -0.45674
 
 Excited State   3:      Singlet-A      3.0709 eV  403.74 nm  f=0.2372  <S**2>=0.000
      91 -> 99        -0.10297
      92 -> 99         0.15696
      93 -> 99         0.17835
      94 -> 99         0.26185
      96 -> 99         0.32224
      97 -> 99        -0.22330
      98 -> 99         0.43760
 
 Excited State   4:      Singlet-A      3.0986 eV  400.13 nm  f=0.0450  <S**2>=0.000
      91 -> 99         0.12311
      92 -> 99        -0.32408
      94 -> 99         0.55396
      95 -> 99         0.18314
      98 -> 99        -0.10161
 
 Excited State   5:      Singlet-A      3.3153 eV  373.97 nm  f=0.0970  <S**2>=0.000
      91 -> 99         0.40383
      92 -> 99         0.41614
      93 -> 99         0.28275
      94 -> 99         0.10802
      95 -> 99         0.10656
      96 -> 99        -0.17074
      98 -> 99        -0.10010
 
 Excited State   6:      Singlet-A      3.4162 eV  362.93 nm  f=0.0184  <S**2>=0.000
      93 -> 99        -0.19331
      94 -> 99        -0.18589
      95 -> 99         0.63325
 
 Excited State   7:      Singlet-A      3.5767 eV  346.64 nm  f=0.0269  <S**2>=0.000
      91 -> 99         0.53359
      92 -> 99        -0.17957
      93 -> 99        -0.16759
      94 -> 99        -0.16254
      96 -> 99         0.28845
      97 -> 99        -0.15035
 
 Excited State   8:      Singlet-A      3.8012 eV  326.17 nm  f=0.0012  <S**2>=0.000
      92 -> 99        -0.36767
      93 -> 99         0.54309
      94 -> 99        -0.18435
      95 -> 99         0.16447
 
 Excited State   9:      Singlet-A      4.4129 eV  280.96 nm  f=0.2325  <S**2>=0.000
      90 -> 99         0.67605
 
 Excited State  10:      Singlet-A      4.8077 eV  257.89 nm  f=0.0426  <S**2>=0.000
      84 -> 99        -0.27139
      87 -> 99        -0.23379
      89 -> 99         0.55276
 
 Excited State  11:      Singlet-A      4.8339 eV  256.49 nm  f=0.0014  <S**2>=0.000
      89 -> 99         0.11132
      96 ->101         0.15779
      96 ->108         0.16428
      97 ->101         0.42386
      97 ->102         0.10106
      97 ->107         0.13422
      97 ->108         0.38809
 
 Excited State  12:      Singlet-A      5.2541 eV  235.97 nm  f=0.0010  <S**2>=0.000
      93 ->105         0.12178
      95 ->105         0.15831
      96 ->101         0.24439
      97 ->101        -0.18657
      98 ->101         0.36142
      98 ->103        -0.32722
 
 Excited State  13:      Singlet-A      5.2964 eV  234.09 nm  f=0.0327  <S**2>=0.000
      80 -> 99        -0.18400
      81 -> 99        -0.10972
      83 -> 99         0.16309
      84 -> 99         0.23916
      85 -> 99         0.12365
      86 -> 99         0.41989
      87 -> 99         0.20984
      88 -> 99         0.21138
      89 -> 99         0.16755
      90 -> 99        -0.10249
 
 Excited State  14:      Singlet-A      5.4350 eV  228.12 nm  f=0.0017  <S**2>=0.000
      92 ->103         0.13692
      93 ->103        -0.23957
      95 ->101         0.41652
      96 ->105         0.14472
      96 ->107         0.10417
      97 ->105        -0.13985
      98 ->105         0.22335
      98 ->106        -0.20312
 
 Excited State  15:      Singlet-A      5.4538 eV  227.34 nm  f=0.0032  <S**2>=0.000
      84 -> 99        -0.12221
      97 ->101         0.22256
      97 ->108        -0.18609
      98 ->100        -0.10628
      98 ->101         0.47405
      98 ->103         0.23037
 
 Excited State  16:      Singlet-A      5.4919 eV  225.76 nm  f=0.0084  <S**2>=0.000
      79 -> 99        -0.14213
      80 -> 99        -0.11590
      82 -> 99         0.15076
      83 -> 99         0.38205
      84 -> 99        -0.33311
      85 -> 99         0.17349
      87 -> 99         0.19701
      89 -> 99        -0.12698
      98 ->101        -0.13650
 
 Excited State  17:      Singlet-A      5.5729 eV  222.48 nm  f=0.0118  <S**2>=0.000
      80 -> 99         0.18359
      81 -> 99         0.11887
      84 -> 99        -0.15012
      85 -> 99         0.16892
      86 -> 99         0.23840
      87 -> 99        -0.26250
      88 -> 99         0.28509
      89 -> 99        -0.19773
      96 ->101        -0.15411
      97 ->101        -0.16600
      97 ->108         0.14778
 
 Excited State  18:      Singlet-A      5.5781 eV  222.27 nm  f=0.0158  <S**2>=0.000
      84 -> 99        -0.11232
      86 -> 99         0.12796
      87 -> 99        -0.12165
      88 -> 99         0.14902
      89 -> 99        -0.12164
      96 ->101         0.26217
      96 ->108        -0.10094
      97 ->101         0.28408
      97 ->104        -0.11206
      97 ->107        -0.11114
      97 ->108        -0.23524
      98 ->101        -0.18927
      98 ->103        -0.16898
 
 Excited State  19:      Singlet-A      5.7753 eV  214.68 nm  f=0.0432  <S**2>=0.000
      88 -> 99         0.15368
      90 ->104         0.10880
      92 ->100        -0.23290
      92 ->102         0.18105
      92 ->106         0.10381
      92 ->107        -0.11199
      93 ->102         0.11838
      93 ->104         0.10259
      94 ->100         0.37376
      94 ->101         0.12982
      94 ->104         0.19082
      96 ->104         0.12080
 
 Excited State  20:      Singlet-A      5.8357 eV  212.46 nm  f=0.0052  <S**2>=0.000
      85 -> 99        -0.14876
      86 -> 99        -0.28019
      87 -> 99         0.22236
      88 -> 99         0.50531
 
 Excited State  21:      Singlet-A      5.9288 eV  209.12 nm  f=0.0156  <S**2>=0.000
      76 -> 99         0.10928
      79 -> 99        -0.16797
      80 -> 99         0.37844
      81 -> 99         0.27827
      85 -> 99         0.11499
      87 -> 99         0.34467
      88 -> 99        -0.10145
      89 -> 99         0.17399
 
 Excited State  22:      Singlet-A      6.0886 eV  203.63 nm  f=0.0926  <S**2>=0.000
      83 -> 99         0.11656
      87 -> 99        -0.11026
      90 ->102        -0.15344
      91 ->100        -0.25179
      91 ->107         0.12176
      92 ->100         0.20828
      93 ->100         0.14320
      94 ->102         0.10830
      96 ->100         0.31908
      97 ->103        -0.11957
 
 Excited State  23:      Singlet-A      6.1001 eV  203.25 nm  f=0.0261  <S**2>=0.000
      96 ->103         0.24225
      97 ->101        -0.10532
      97 ->103         0.57782
      98 ->103         0.10464
 
[...]
    18  C    0.000903  -0.000487  -0.000017  -0.000029  -0.000223  -0.004854
    19  C    0.009679  -0.000636   0.000002   0.000001  -0.000023   0.000665
    20  C   -0.000235   0.000014   0.000000   0.000000   0.000000   0.000001
    21  C    0.000010   0.000000   0.000000   0.000000   0.000000   0.000000
    22  C   -0.000001   0.000000   0.000000   0.000000   0.000000   0.000000
    23  C   -0.000003  -0.000002   0.000000   0.000000   0.000000   0.000007
    24  C   -0.001399  -0.000044   0.000000   0.000000   0.000000   0.000034
    25  C    5.221602   0.357610  -0.038399  -0.071481   0.001742   0.513593
    26  C    0.357610   5.091582   0.531202  -0.002310  -0.068388  -0.039897
    27  C   -0.038399   0.531202   4.813687   0.481531  -0.004510  -0.071132
    28  C   -0.071481  -0.002310   0.481531   4.756873   0.495286  -0.006223
    29  C    0.001742  -0.068388  -0.004510   0.495286   4.725822   0.500837
    30  C    0.513593  -0.039897  -0.071132  -0.006223   0.500837   4.846364
    31  H   -0.000037   0.000367   0.000043   0.000001   0.000000   0.000000
    32  H    0.000002   0.000005   0.000000   0.000000   0.000000   0.000000
    33  H    0.000002   0.000002   0.000000   0.000000   0.000000   0.000000
    34  H    0.000347   0.000026   0.000000   0.000000   0.000000   0.000014
    35  H    0.000022   0.000000   0.000000   0.000000  -0.000001   0.000001
    36  H   -0.000001   0.000000   0.000000   0.000000   0.000000  -0.000001
    37  H    0.000000   0.000000   0.000000   0.000000   0.000000   0.000000
    38  H   -0.000015  -0.000005   0.000000   0.000000   0.000016   0.000057
    39  H    0.000368   0.001335   0.000060   0.000002  -0.000443  -0.001962
    40  H   -0.000031   0.000000   0.000000   0.000000   0.000000   0.000004
    41  H    0.000000   0.000000   0.000000   0.000000   0.000000   0.000000
    42  H    0.000000   0.000000   0.000000   0.000000   0.000000   0.000000
    43  H   -0.000001   0.000000   0.000000   0.000000   0.000000   0.000000
    44  H   -0.001237   0.000046  -0.000009  -0.000004   0.000002   0.000527
    45  H    0.011802  -0.027552   0.400515  -0.045748   0.007581  -0.000411
    46  H   -0.000248   0.008595  -0.040509   0.408308  -0.042574   0.008738
    47  H    0.009387  -0.000291   0.008168  -0.045319   0.407741  -0.036462
    48  H   -0.039882   0.010503  -0.000546   0.008644  -0.037899   0.403408
              31         32         33         34         35         36
     1  O    0.000011   0.000000   0.000002   0.000109  -0.000006   0.000000
     2  O    0.000097   0.000002   0.000000   0.000008   0.000000   0.000000
     3  C   -0.011987  -0.000168   0.000013  -0.000283   0.000000   0.000000
     4  H    0.003309  -0.000006  -0.000001   0.000006   0.000000   0.000000
     5  C   -0.027529   0.008532  -0.000303   0.009925   0.000001   0.000000
     6  C    0.400463  -0.040542   0.008172  -0.000533   0.000000   0.000000
     7  C   -0.045668   0.408492  -0.045534   0.008737   0.000000   0.000000
     8  C    0.007537  -0.042426   0.407723  -0.035874   0.000000   0.000000
     9  C   -0.000379   0.008760  -0.035596   0.403301   0.000017   0.000000
    10  C    0.011878  -0.000193   0.009668  -0.044944  -0.000066   0.000000
    11  C   -0.000288   0.000015  -0.000194  -0.018747   0.000527   0.000003
    12  C    0.000008   0.000000   0.000009   0.008283  -0.021270  -0.000330
    13  C    0.000000   0.000000  -0.000001  -0.003006  -0.039480   0.007941
    14  C    0.000000   0.000000  -0.000001   0.000435   0.418442  -0.032785
    15  C    0.000000   0.000000   0.000000  -0.000040  -0.033459   0.409798
    16  C    0.000000   0.000000   0.000000   0.000024   0.008532  -0.042125
    17  C    0.000000   0.000000   0.000003  -0.000139  -0.001053   0.007251
    18  C    0.000000   0.000000   0.000011   0.000228   0.007709  -0.000285
    19  C    0.000000   0.000000   0.000002  -0.002587   0.000985   0.000027
    20  C    0.000000   0.000000  -0.000001   0.002117  -0.002493   0.000030
    21  C    0.000000   0.000000   0.000000   0.000101  -0.000748   0.000006
    22  C    0.000000   0.000000   0.000000  -0.000001   0.000112   0.000000
    23  C    0.000000   0.000000   0.000000  -0.000003   0.000137   0.000000
    24  C    0.000000   0.000000   0.000000  -0.000111  -0.000405   0.000000
    25  C   -0.000037   0.000002   0.000002   0.000347   0.000022  -0.000001
    26  C    0.000367   0.000005   0.000002   0.000026   0.000000   0.000000
    27  C    0.000043   0.000000   0.000000   0.000000   0.000000   0.000000
    28  C    0.000001   0.000000   0.000000   0.000000   0.000000   0.000000
    29  C    0.000000   0.000000   0.000000   0.000000  -0.000001   0.000000
    30  C    0.000000   0.000000   0.000000   0.000014   0.000001  -0.000001
    31  H    0.647016  -0.011020  -0.000145   0.000040   0.000000   0.000000
    32  H   -0.011020   0.646437  -0.011920  -0.000169   0.000000   0.000000
    33  H   -0.000145  -0.011920   0.648346  -0.012908   0.000000   0.000000
    34  H    0.000040  -0.000169  -0.012908   0.662011   0.000032  -0.000001
    35  H    0.000000   0.000000   0.000000   0.000032   0.608903  -0.011528
    36  H    0.000000   0.000000   0.000000  -0.000001  -0.011528   0.617503
    37  H    0.000000   0.000000   0.000000   0.000001  -0.000125  -0.010794
    38  H    0.000000   0.000000   0.000000  -0.000002   0.000029  -0.000112
    39  H    0.000001   0.000003   0.000037  -0.001081  -0.000021   0.000033
    40  H    0.000000   0.000000   0.000005   0.001112  -0.001607   0.000013
    41  H    0.000000   0.000000   0.000000   0.000005   0.000020   0.000001
    42  H    0.000000   0.000000   0.000000   0.000000   0.000008   0.000000
    43  H    0.000000   0.000000   0.000000   0.000000   0.000001   0.000000
    44  H    0.000000   0.000000   0.000000  -0.000011  -0.000004   0.000000
    45  H   -0.000001   0.000000   0.000000   0.000000   0.000000   0.000000
    46  H    0.000000   0.000000   0.000000   0.000000   0.000000   0.000000
    47  H    0.000000   0.000000   0.000000   0.000000   0.000000   0.000000
    48  H    0.000000   0.000000   0.000000   0.000026   0.000078   0.000007
              37         38         39         40         41         42
     1  O    0.000000   0.000000   0.000147  -0.000005   0.000000   0.000000
     2  O    0.000000   0.000000   0.000024   0.000000   0.000000   0.000000
     3  C    0.000000   0.000000  -0.000170   0.000000   0.000000   0.000000
     4  H    0.000000   0.000000  -0.000005   0.000000   0.000000   0.000000
     5  C    0.000000  -0.000001   0.001866  -0.000011   0.000000   0.000000
     6  C    0.000000   0.000000  -0.000024   0.000000   0.000000   0.000000
     7  C    0.000000  -0.000001  -0.000039   0.000000   0.000000   0.000000
     8  C    0.000000   0.000008  -0.000552   0.000036   0.000000   0.000000
     9  C    0.000000   0.000047  -0.001103  -0.000101  -0.000001   0.000000
    10  C    0.000000   0.000023  -0.002110  -0.000034   0.000000   0.000000
    11  C   -0.000001   0.000031   0.004509   0.000570   0.000001   0.000001
    12  C    0.000011  -0.000279  -0.024736  -0.014723  -0.000315   0.000004
    13  C   -0.000607   0.008615  -0.038143  -0.001141   0.000002   0.000001
    14  C    0.008480  -0.000372   0.008149   0.000824  -0.000016  -0.000001
    15  C   -0.040519   0.007376  -0.001133  -0.000141   0.000005   0.000000
    16  C    0.411575  -0.044036   0.009183   0.000003   0.000000   0.000000
    17  C   -0.039651   0.408729  -0.033103  -0.000025   0.000000   0.000000
    18  C    0.008809  -0.030073   0.413096  -0.000330   0.000000   0.000000
    19  C    0.000000   0.000005   0.000198  -0.049239   0.008211  -0.000766
    20  C    0.000000   0.000000  -0.000025   0.418342  -0.034335   0.008806
    21  C    0.000000   0.000000  -0.000001  -0.029838   0.408994  -0.041198
    22  C    0.000000   0.000000   0.000000   0.008510  -0.042400   0.411588
    23  C    0.000000   0.000000   0.000000  -0.000892   0.007440  -0.041184
    24  C    0.000000   0.000000  -0.000005   0.007548  -0.000221   0.008589
    25  C    0.000000  -0.000015   0.000368  -0.000031   0.000000   0.000000
    26  C    0.000000  -0.000005   0.001335   0.000000   0.000000   0.000000
    27  C    0.000000   0.000000   0.000060   0.000000   0.000000   0.000000
    28  C    0.000000   0.000000   0.000002   0.000000   0.000000   0.000000
    29  C    0.000000   0.000016  -0.000443   0.000000   0.000000   0.000000
    30  C    0.000000   0.000057  -0.001962   0.000004   0.000000   0.000000
    31  H    0.000000   0.000000   0.000001   0.000000   0.000000   0.000000
    32  H    0.000000   0.000000   0.000003   0.000000   0.000000   0.000000
    33  H    0.000000   0.000000   0.000037   0.000005   0.000000   0.000000
    34  H    0.000001  -0.000002  -0.001081   0.001112   0.000005   0.000000
    35  H   -0.000125   0.000029  -0.000021  -0.001607   0.000020   0.000008
    36  H   -0.010794  -0.000112   0.000033   0.000013   0.000001   0.000000
    37  H    0.609020  -0.010768  -0.000133   0.000001   0.000000   0.000000
    38  H   -0.010768   0.619477  -0.012709  -0.000001   0.000000   0.000000
    39  H   -0.000133  -0.012709   0.626875  -0.000004   0.000000   0.000000
    40  H    0.000001  -0.000001  -0.000004   0.619216  -0.011459  -0.000137
    41  H    0.000000   0.000000   0.000000  -0.011459   0.628547  -0.011108
    42  H    0.000000   0.000000   0.000000  -0.000137  -0.011108   0.624407
    43  H    0.000000   0.000000   0.000000   0.000034  -0.000123  -0.011234
    44  H    0.000000   0.000000   0.000003  -0.000052   0.000027  -0.000095
    45  H    0.000000   0.000000   0.000000   0.000000   0.000000   0.000000
    46  H    0.000000   0.000000   0.000001   0.000000   0.000000   0.000000
    47  H    0.000000   0.000001  -0.000006   0.000000   0.000000   0.000000
    48  H    0.000008  -0.000021   0.000252   0.000008   0.000000   0.000000
              43         44         45         46         47         48
     1  O   -0.000040   0.018761   0.000011   0.000000   0.000002   0.000032
     2  O    0.000000  -0.000097   0.000090   0.000002   0.000000   0.000009
     3  C    0.000000   0.000044  -0.012000  -0.000167   0.000014  -0.000295
     4  H    0.000000  -0.000005   0.003314  -0.000006  -0.000001   0.000006
     5  C    0.000000  -0.000011   0.000347   0.000004   0.000002   0.000020
     6  C    0.000000  -0.000001   0.000040   0.000000   0.000000   0.000000
     7  C    0.000000   0.000000   0.000001   0.000000   0.000000   0.000000
     8  C    0.000000   0.000000   0.000000   0.000000   0.000000   0.000000
     9  C    0.000000  -0.000056   0.000000   0.000000   0.000000   0.000009
    10  C    0.000000   0.001451  -0.000027   0.000002   0.000003   0.000310
    11  C    0.000002  -0.002490  -0.000285   0.000010  -0.000199  -0.018242
    12  C   -0.000308  -0.014525   0.000008   0.000000   0.000008   0.003146
    13  C    0.000004   0.000584   0.000000   0.000000   0.000017  -0.003410
    14  C   -0.000002   0.000054   0.000000   0.000000   0.000000   0.000651
    15  C    0.000000   0.000001   0.000000   0.000000  -0.000001   0.000083
    16  C    0.000000   0.000000   0.000000   0.000000  -0.000002   0.000272
    17  C    0.000000   0.000000   0.000000   0.000000   0.000014  -0.001689
    18  C    0.000000   0.000005   0.000000   0.000000   0.000041  -0.002465
    19  C    0.008003  -0.040005   0.000000   0.000000  -0.000001   0.000065
    20  C   -0.000305   0.008900   0.000000   0.000000   0.000000   0.000036
    21  C    0.007705  -0.001260   0.000000   0.000000   0.000000   0.000001
    22  C   -0.043240   0.008610   0.000000   0.000000   0.000000   0.000000
    23  C    0.410038  -0.037419   0.000000   0.000000   0.000000   0.000000
    24  C   -0.035912   0.410342   0.000000   0.000000   0.000000   0.000082
    25  C   -0.000001  -0.001237   0.011802  -0.000248   0.009387  -0.039882
    26  C    0.000000   0.000046  -0.027552   0.008595  -0.000291   0.010503
    27  C    0.000000  -0.000009   0.400515  -0.040509   0.008168  -0.000546
    28  C    0.000000  -0.000004  -0.045748   0.408308  -0.045319   0.008644
    29  C    0.000000   0.000002   0.007581  -0.042574   0.407741  -0.037899
    30  C    0.000000   0.000527  -0.000411   0.008738  -0.036462   0.403408
    31  H    0.000000   0.000000  -0.000001   0.000000   0.000000   0.000000
    32  H    0.000000   0.000000   0.000000   0.000000   0.000000   0.000000
    33  H    0.000000   0.000000   0.000000   0.000000   0.000000   0.000000
    34  H    0.000000  -0.000011   0.000000   0.000000   0.000000   0.000026
    35  H    0.000001  -0.000004   0.000000   0.000000   0.000000   0.000078
    36  H    0.000000   0.000000   0.000000   0.000000   0.000000   0.000007
    37  H    0.000000   0.000000   0.000000   0.000000   0.000000   0.000008
    38  H    0.000000   0.000000   0.000000   0.000000   0.000001  -0.000021
    39  H    0.000000   0.000003   0.000000   0.000001  -0.000006   0.000252
    40  H    0.000034  -0.000052   0.000000   0.000000   0.000000   0.000008
    41  H   -0.000123   0.000027   0.000000   0.000000   0.000000   0.000000
    42  H   -0.011234  -0.000095   0.000000   0.000000   0.000000   0.000000
    43  H    0.630021  -0.011690   0.000000   0.000000   0.000000   0.000000
    44  H   -0.011690   0.622087   0.000000   0.000000   0.000000   0.000040
    45  H    0.000000   0.000000   0.648196  -0.011032  -0.000148   0.000039
    46  H    0.000000   0.000000  -0.011032   0.647693  -0.011950  -0.000167
    47  H    0.000000   0.000000  -0.000148  -0.011950   0.649480  -0.012694
    48  H    0.000000   0.000040   0.000039  -0.000167  -0.012694   0.664069
 Mulliken charges:
               1
     1  O   -0.206602
     2  O   -0.182150
     3  C    0.117723
     4  H    0.038608
     5  C    0.003448
     6  C   -0.021762
     7  C    0.015227
     8  C    0.011009
     9  C   -0.024813
    10  C    0.147000
    11  C   -0.108207
    12  C    0.109324
    13  C   -0.011876
    14  C    0.031845
    15  C    0.022254
    16  C    0.057649
    17  C    0.030665
    18  C    0.015793
    19  C   -0.065908
    20  C   -0.007585
    21  C    0.018258
    22  C    0.034898
    23  C    0.009701
    24  C    0.058707
    25  C    0.166521
    26  C   -0.000934
    27  C   -0.022129
    28  C    0.014283
    29  C    0.009118
    30  C   -0.022193
    31  H    0.026286
    32  H    0.034194
    33  H    0.032611
    34  H    0.023554
    35  H    0.066711
    36  H    0.055349
    37  H    0.064690
    38  H    0.053984
    39  H    0.051363
    40  H    0.053546
    41  H    0.046725
    42  H    0.052318
    43  H    0.047045
    44  H    0.037491
    45  H    0.025260
    46  H    0.033299
    47  H    0.032195
    48  H    0.025509
 Sum of Mulliken charges =   1.00000
 Mulliken charges with hydrogens summed into heavy atoms:
               1
     1  O   -0.206602
     2  O   -0.182150
     3  C    0.156331
     5  C    0.003448
     6  C    0.004524
     7  C    0.049421
     8  C    0.043619
     9  C   -0.001259
    10  C    0.147000
    11  C   -0.108207
    12  C    0.109324
    13  C   -0.011876
    14  C    0.098556
    15  C    0.077603
    16  C    0.122339
    17  C    0.084648
    18  C    0.067156
    19  C   -0.065908
    20  C    0.045961
    21  C    0.064983
    22  C    0.087216
    23  C    0.056746
    24  C    0.096198
    25  C    0.166521
    26  C   -0.000934
    27  C    0.003131
    28  C    0.047583
    29  C    0.041313
    30  C    0.003316
 Electronic spatial extent (au):  <R**2>=           8898.8990
 Charge=              1.0000 electrons
 Dipole moment (field-independent basis, Debye):
    X=              5.8960    Y=             -5.6056    Z=             -2.4227  Tot=              8.4885
 Quadrupole moment (field-independent basis, Debye-Ang):
   XX=            -99.4500   YY=           -130.2681   ZZ=           -140.1087
   XY=             -2.6795   XZ=              0.9538   YZ=              3.7258
 Traceless Quadrupole moment (field-independent basis, Debye-Ang):
   XX=             23.8256   YY=             -6.9925   ZZ=            -16.8331
   XY=             -2.6795   XZ=              0.9538   YZ=              3.7258
 Octapole moment (field-independent basis, Debye-Ang**2):
  XXX=             52.8789  YYY=           -112.3740  ZZZ=            -29.9772  XYY=             69.6249
  XXY=             51.1367  XXZ=             22.8201  XZZ=             -7.1670  YZZ=              4.1707
  YYZ=            -16.5189  XYZ=             58.4322
 Hexadecapole moment (field-independent basis, Debye-Ang**3):
 XXXX=          -4588.7935 YYYY=          -3090.8999 ZZZZ=          -2562.1113 XXXY=             71.8249
 XXXZ=            -68.9084 YYYX=           -127.2047 YYYZ=            214.4937 ZZZX=             86.1540
 ZZZY=            -35.8029 XXYY=          -1145.1116 XXZZ=          -1248.0255 YYZZ=           -881.0095
 XXYZ=             10.5072 YYXZ=             -9.2204 ZZXY=             42.4874
 N-N= 2.680981840145D+03 E-N=-8.102666943996D+03  KE= 1.182417891885D+03
 1|1|UNPC-CHSHR-P01|SP|RwB97XD TD-FC|CC-pVDZ|C27H19O2(1+)|IBS|05-Jul-20
 24|0||# td=(nstates=60) wb97xd/cc-pvdz scrf=(cpcm,solvent=n,n-DiMethyl
 Formamide) geom=AllCheck guess=read maxdisk=900GB integral(ultrafinegr
 id)||OS10plus_conf1_s||1,1|O,0,0.2477439113,-1.9775845625,0.7760124861
 |O,0,0.8739740671,-0.7036854818,1.0244919183|C,0,2.2931074892,-0.86470
 2922,1.3033315623|H,0,2.6413285626,0.1583049546,1.4822849194|C,0,2.383
 6239831,-1.767320764,2.4994673675|C,0,2.9070470705,-1.4493108297,3.745
 4079386|C,0,2.8083726917,-2.3827868921,4.7796357151|C,0,2.1616546576,-
 3.5992002349,4.5681067716|C,0,1.6233287699,-3.9130782838,3.3174915953|
 C,0,1.7659871033,-3.0025664897,2.2756257234|C,0,1.2025963011,-3.077183
 7431,0.8421773595|C,0,0.4510816822,-4.368819151,0.6182365395|C,0,1.177
 001449,-5.5886731169,0.4889901429|C,0,0.5369030332,-6.7097313781,-0.11
 88576958|C,0,1.2150589915,-7.9026730001,-0.2948433217|C,0,2.5430331645
 ,-8.0118855981,0.1198943709|C,0,3.2084117904,-6.9175476974,0.690757371
 4|C,0,2.5493701387,-5.7189675906,0.859415887|C,0,-0.9929914491,-4.3908
 936952,0.6034148138|C,0,-1.6604735992,-5.3949260213,1.34878603|C,0,-3.
 0460549,-5.4524311397,1.362064365|C,0,-3.784182337,-4.5514359808,0.594
 4217013|C,0,-3.1386258884,-3.5712203144,-0.1667124153|C,0,-1.758426832
 5,-3.4632368812,-0.1430381601|C,0,2.280151202,-2.7489829836,-0.1925392
 698|C,0,2.8906954354,-1.5219984982,0.0929483191|C,0,3.8638314676,-0.99
 69444659,-0.7459430963|C,0,4.2295525304,-1.7136739897,-1.8879743212|C,
 0,3.5976272207,-2.9176932499,-2.1936587762|C,0,2.6083005972,-3.4391920
 516,-1.3551988745|H,0,3.383577451,-0.4814060854,3.9094092704|H,0,3.226
 7137277,-2.1525486801,5.7603947317|H,0,2.069490435,-4.317240662,5.3838
 009532|H,0,1.1159461824,-4.8686128263,3.1815694327|H,0,-0.4742245052,-
 6.6078095276,-0.5086743185|H,0,0.7173744469,-8.7442227703,-0.775099000
 7|H,0,3.0772431014,-8.9528421505,-0.0199620884|H,0,4.2490672293,-7.011
 1358128,0.9988308895|H,0,3.0834403033,-4.8854837221,1.3095603342|H,0,-
 1.0834197967,-6.0878377442,1.9615495179|H,0,-3.550449214,-6.2051772593
 ,1.9674676271|H,0,-4.8736314628,-4.6089400326,0.5899232549|H,0,-3.7219
 422876,-2.8812154639,-0.7764038557|H,0,-1.2590252228,-2.7039880076,-0.
 7389392315|H,0,4.3303489347,-0.0379990906,-0.5148128769|H,0,5.00206922
 61,-1.3211788223,-2.5506682485|H,0,3.8712600668,-3.4620658376,-3.09833
 76023|H,0,2.1189330805,-4.3744534522,-1.6253057562||Version=EM64W-G09R
 evD.01|State=1-A|HF=-1190.1365627|RMSD=3.360e-009|PG=C01 [X(C27H19O2)]
 ||@


 THE DIFFICULTY IN SCIENCE IS OFTEN NOT SO MUCH HOW
 TO MAKE A DISCOVERY BUT RATHER TO KNOW ONE HAS MADE IT.

                                                   -- J. D. BERNAL
 Job cpu time:       0 days  2 hours 12 minutes 42.0 seconds.
 File lengths (MBytes):  RWF=   3830 Int=      0 D2E=      0 Chk=    524 Scr=      1
 Normal termination of Gaussian 09 at Fri Jul 05 19:52:20 2024.
