 Entering Link 1 = C:\G09W\l1.exe PID=     25448.
  
 Copyright (c) 1988,1990,1992,1993,1995,1998,2003,2009,2013,
            Gaussian, Inc.  All Rights Reserved.
  
 This is part of the Gaussian(R) 09 program.  It is based on
 the Gaussian(R) 03 system (copyright 2003, Gaussian, Inc.),
 the Gaussian(R) 98 system (copyright 1998, Gaussian, Inc.),
 the Gaussian(R) 94 system (copyright 1995, Gaussian, Inc.),
 the Gaussian 92(TM) system (copyright 1992, Gaussian, Inc.),
 the Gaussian 90(TM) system (copyright 1990, Gaussian, Inc.),
 the Gaussian 88(TM) system (copyright 1988, Gaussian, Inc.),
 the Gaussian 86(TM) system (copyright 1986, Carnegie Mellon
 University), and the Gaussian 82(TM) system (copyright 1983,
 Carnegie Mellon University). Gaussian is a federally registered
 trademark of Gaussian, Inc.
  
 This software contains proprietary and confidential information,
 including trade secrets, belonging to Gaussian, Inc.
  
 This software is provided under written license and may be
 used, copied, transmitted, or stored only in accord with that
 written license.
  
 The following legend is applicable only to US Government
 contracts under FAR:
  
                    RESTRICTED RIGHTS LEGEND
  
 Use, reproduction and disclosure by the US Government is
 subject to restrictions as set forth in subparagraphs (a)
 and (c) of the Commercial Computer Software - Restricted
 Rights clause in FAR 52.227-19.
  
 Gaussian, Inc.
 340 Quinnipiac St., Bldg. 40, Wallingford CT 06492
  
  
 ---------------------------------------------------------------
 Warning -- This program may not be used in any manner that
 competes with the business of Gaussian, Inc. or will provide
 assistance to any competitor of Gaussian, Inc.  The licensee
 of this program is prohibited from giving any competitor of
 Gaussian, Inc. access to this program.  By using this program,
 the user acknowledges that Gaussian, Inc. is engaged in the
 business of creating and licensing software in the field of
 computational chemistry and represents and warrants to the
 licensee that it is not a competitor of Gaussian, Inc. and that
 it will not use this program in any manner prohibited above.
 ---------------------------------------------------------------
  

 Cite this work as:
 Gaussian 09, Revision D.01,
 M. J. Frisch, G. W. Trucks, H. B. Schlegel, G. E. Scuseria, 
 M. A. Robb, J. R. Cheeseman, G. Scalmani, V. Barone, B. Mennucci, 
 G. A. Petersson, H. Nakatsuji, M. Caricato, X. Li, H. P. Hratchian, 
 A. F. Izmaylov, J. Bloino, G. Zheng, J. L. Sonnenberg, M. Hada, 
 M. Ehara, K. Toyota, R. Fukuda, J. Hasegawa, M. Ishida, T. Nakajima, 
 Y. Honda, O. Kitao, H. Nakai, T. Vreven, J. A. Montgomery, Jr., 
 J. E. Peralta, F. Ogliaro, M. Bearpark, J. J. Heyd, E. Brothers, 
 K. N. Kudin, V. N. Staroverov, T. Keith, R. Kobayashi, J. Normand, 
 K. Raghavachari, A. Rendell, J. C. Burant, S. S. Iyengar, J. Tomasi, 
 M. Cossi, N. Rega, J. M. Millam, M. Klene, J. E. Knox, J. B. Cross, 
 V. Bakken, C. Adamo, J. Jaramillo, R. Gomperts, R. E. Stratmann, 
 O. Yazyev, A. J. Austin, R. Cammi, C. Pomelli, J. W. Ochterski, 
 R. L. Martin, K. Morokuma, V. G. Zakrzewski, G. A. Voth, 
 P. Salvador, J. J. Dannenberg, S. Dapprich, A. D. Daniels, 
 O. Farkas, J. B. Foresman, J. V. Ortiz, J. Cioslowski, 
 and D. J. Fox, Gaussian, Inc., Wallingford CT, 2013.
 
 ******************************************
 Gaussian 09:  EM64W-G09RevD.01 13-Apr-2013
                03-Jul-2024 
 ******************************************
 %nprocshared=15
 Will use up to   15 processors via shared memory.
 %mem=50GB
 %chk=D:\Yaroslav\pink-mystery\OS3\conf1\OS3_conf1_1067kjm_opt.chk
 ----------------------------------------------------------------------
 # td=(nstates=60) wb97xd/cc-pvdz scrf=(cpcm,solvent=n,n-DiMethylFormam
 ide) geom=AllCheck guess=read maxdisk=900GB integral(ultrafinegrid)
 ----------------------------------------------------------------------
 1/29=7,38=1/1;
 2/12=2,40=1/2;
 3/5=16,11=9,14=-4,16=1,25=1,30=1,70=2101,72=148,74=-58,75=-5,116=-2/1,2,8,3;
 4/5=1/1;
 5/5=2,38=6,53=148/2;
 8/6=1,10=1,108=60/1;
 9/41=60,42=1,70=2/14;
 6/7=2,8=2,9=2,10=2/1;
 99/5=1,9=1/99;
 Structure from the checkpoint file:  "D:\Yaroslav\pink-mystery\OS3\conf1\OS3_conf1_1067kjm_opt.chk"
 ---------
 OS3_conf1
 ---------
 Charge =  0 Multiplicity = 2
 Redundant internal coordinates found in file.
 O,0,2.7322588335,-0.0508348619,0.5260876058
 C,0,4.0668514986,0.065748961,0.0083196516
 C,0,4.5656709484,1.4331802724,0.5153802795
 C,0,4.4397684994,2.6078405108,-0.2302657639
 C,0,4.8661595498,3.8269719829,0.2890200201
 C,0,5.4329094392,3.8832823601,1.5632411849
 C,0,5.512888711,2.7279345917,2.3322989691
 C,0,5.0467454823,1.5072887512,1.8301425035
 C,0,5.0142169541,0.2696303694,2.6550285812
 C,0,5.4065910818,-0.9542198185,1.9036240205
 C,0,4.9183891174,-1.0740188414,0.5894567101
 C,0,5.1730153668,-2.2410674394,-0.133155773
 C,0,5.9448558307,-3.2629828092,0.4141549051
 C,0,6.4824845785,-3.1164296668,1.6918591888
 C,0,6.2114698755,-1.969278495,2.4323561678
 C,0,4.4940982852,0.2437621787,3.9049497902
 C,0,4.3984411353,-1.0138261309,4.7121134176
 C,0,5.356019565,-1.3301618507,5.6823862754
 C,0,5.2373842121,-2.4949531952,6.4398998007
 C,0,4.1583465196,-3.3556244503,6.2379179223
 C,0,3.1959532249,-3.042958404,5.277534022
 C,0,3.3125837827,-1.8759185895,4.5240774389
 C,0,3.8323256547,1.4300189098,4.53317703
 C,0,2.7624794473,2.0592927057,3.881286361
 C,0,2.1095641059,3.1407565123,4.4671305699
 C,0,2.5165202727,3.6124487885,5.7157089991
 C,0,3.5723550237,2.9859154822,6.3776730631
 C,0,4.2178365016,1.8956524169,5.7958275343
 C,0,4.0594593525,0.0147468237,-1.5344363489
 C,0,2.9366117608,-0.3657743843,-2.311651365
 C,0,2.9571536727,-0.1496810596,-3.7396217069
 C,0,1.8097269421,-0.5071208699,-4.5264755226
 C,0,0.7174117231,-1.0991266123,-3.9677900108
 C,0,0.7152044221,-1.3837628931,-2.5734296345
 C,0,1.7697531903,-1.0303660918,-1.782003126
 C,0,4.0999368019,0.3667209897,-4.3732880687
 C,0,4.0772601022,0.6600332104,-5.8343483925
 C,0,3.3749950509,1.8573589504,-6.268192325
 C,0,2.7861553277,1.9700778688,-7.5493061916
 C,0,2.0908470483,3.1152114201,-7.9206938871
 C,0,1.9568319611,4.1836898,-7.0307658121
 C,0,2.5163357048,4.0859286108,-5.7543328948
 C,0,3.2064633267,2.9409972434,-5.3747480132
 C,0,4.7450502452,-0.2640579857,-6.7351559483
 C,0,4.9502664694,-1.6081685382,-6.3447737048
 C,0,5.608701403,-2.506449853,-7.1757446564
 C,0,6.0994224504,-2.092683094,-8.4167185937
 C,0,5.9286789416,-0.7635182482,-8.8118296174
 C,0,5.264861322,0.1382363748,-7.9881219653
 C,0,5.2697439994,0.5833618721,-3.622605724
 C,0,6.470570485,1.0411354527,-4.2625581661
 C,0,7.6231375559,1.2327998173,-3.5603050848
 C,0,7.6421244382,0.9760335194,-2.1610082973
 C,0,6.5087385974,0.5806499473,-1.5111185936
 C,0,5.2596501391,0.3828077698,-2.2006224314
 H,0,2.8159930511,-0.2001963962,1.4767416219
 H,0,4.0197447314,2.5702189526,-1.2360627644
 H,0,4.7708108007,4.7334998384,-0.3110085725
 H,0,5.8002866276,4.8301508152,1.9621987694
 H,0,5.9262221408,2.7679056444,3.3409697456
 H,0,4.7772832507,-2.3460852592,-1.1443086965
 H,0,6.1400222061,-4.1661590679,-0.1661560992
 H,0,7.115050731,-3.8977245134,2.1163614383
 H,0,6.632771503,-1.8579084087,3.4302197173
 H,0,6.2145498171,-0.6712810604,5.8296870616
 H,0,5.9964601014,-2.7336151258,7.1870364423
 H,0,4.0678098518,-4.269241104,6.8280241941
 H,0,2.348562098,-3.7109832099,5.112966592
 H,0,2.5560122661,-1.6341044258,3.7743120949
 H,0,2.4469276808,1.7047162166,2.8979838215
 H,0,1.2784450887,3.617344302,3.9442412235
 H,0,2.0086000676,4.4629008804,6.1738695432
 H,0,3.8958056389,3.3454867326,7.3561947175
 H,0,5.0382917254,1.4103494485,6.3270302615
 H,0,1.8402722872,-0.3200770353,-5.6001819762
 H,0,-0.1377393029,-1.3772044762,-4.5858955395
 H,0,-0.136101978,-1.9039968685,-2.1304147627
 H,0,1.7490489978,-1.2740082476,-0.7274178189
 H,0,2.8452864805,1.1328174287,-8.2457352927
 H,0,1.6372443427,3.1699408478,-8.9121154397
 H,0,1.4117379316,5.0816617312,-7.3263678535
 H,0,2.4134511012,4.9114797435,-5.0475933874
 H,0,3.6401742865,2.8811175989,-4.3749593365
 H,0,4.5713830187,-1.9466258848,-5.3788807689
 H,0,5.7411648432,-3.5407385133,-6.8527828729
 H,0,6.6198648554,-2.7979916425,-9.0667129607
 H,0,6.3287620525,-0.4224811154,-9.7685468958
 H,0,5.1773751163,1.1797851155,-8.2993969018
 H,0,6.4492638004,1.2264353194,-5.3363634825
 H,0,8.5283064381,1.572352353,-4.0660425577
 H,0,8.5700734537,1.0976792512,-1.599882949
 H,0,6.5733069656,0.3936498537,-0.4428947077
 Recover connectivity data from disk.
 Stoichiometry    C54H37O(2)
 Framework group  C1[X(C54H37O)]
 Deg. of freedom   270
 Full point group                 C1      NOp   1
 Largest Abelian subgroup         C1      NOp   1
 Largest concise Abelian subgroup C1      NOp   1
                         Standard orientation:                         
 ---------------------------------------------------------------------
 Center     Atomic      Atomic             Coordinates (Angstroms)
 Number     Number       Type             X           Y           Z
 ---------------------------------------------------------------------
      1          8           0        1.411184    0.260809    1.567056
      2          6           0        0.907539   -0.127930    0.279409
      3          6           0        1.348177    1.002580   -0.671162
      4          6           0        0.539160    2.103538   -0.962793
      5          6           0        0.998855    3.121591   -1.793454
      6          6           0        2.276422    3.045179   -2.350229
      7          6           0        3.107112    1.979703   -2.022525
      8          6           0        2.664019    0.975154   -1.154207
      9          6           0        3.553195   -0.124618   -0.692513
     10          6           0        2.873982   -1.447700   -0.625427
     11          6           0        1.561068   -1.460435   -0.119639
     12          6           0        0.905555   -2.680422    0.056258
     13          6           0        1.517853   -3.876635   -0.309479
     14          6           0        2.793657   -3.858281   -0.870761
     15          6           0        3.467849   -2.650143   -1.024408
     16          6           0        4.794963    0.102912   -0.202883
     17          6           0        5.666582   -0.994269    0.325004
     18          6           0        6.666273   -1.573076   -0.464968
     19          6           0        7.483031   -2.578191    0.052032
     20          6           0        7.311469   -3.014330    1.365890
     21          6           0        6.321777   -2.436716    2.161610
     22          6           0        5.508921   -1.428570    1.645675
     23          6           0        5.349246    1.478780   -0.003947
     24          6           0        4.649110    2.407050    0.779406
     25          6           0        5.166796    3.679535    1.007132
     26          6           0        6.394258    4.046080    0.453927
     27          6           0        7.104101    3.125851   -0.317326
     28          6           0        6.590768    1.847977   -0.535018
     29          6           0       -0.630241   -0.257990    0.312086
     30          6           0       -1.402413   -0.261696    1.500943
     31          6           0       -2.839424   -0.145638    1.412924
     32          6           0       -3.622811   -0.119663    2.616718
     33          6           0       -3.049399   -0.258146    3.844632
     34          6           0       -1.642021   -0.446557    3.939774
     35          6           0       -0.855212   -0.443408    2.824318
     36          6           0       -3.482930   -0.099683    0.164747
     37          6           0       -4.957733    0.101909    0.090183
     38          6           0       -5.465078    1.443844    0.328507
     39          6           0       -6.758869    1.685608    0.846528
     40          6           0       -7.200967    2.979762    1.096386
     41          6           0       -6.371369    4.074448    0.841420
     42          6           0       -5.083479    3.856718    0.345621
     43          6           0       -4.633283    2.565026    0.100500
     44          6           0       -5.798078   -1.046085   -0.205237
     45          6           0       -5.333578   -2.352857    0.073565
     46          6           0       -6.105707   -3.469594   -0.222532
     47          6           0       -7.359667   -3.323787   -0.821158
     48          6           0       -7.827586   -2.043361   -1.126947
     49          6           0       -7.062973   -0.921886   -0.826996
     50          6           0       -2.727819   -0.267102   -1.010279
     51          6           0       -3.373623   -0.296690   -2.292129
     52          6           0       -2.665788   -0.484058   -3.441985
     53          6           0       -1.254657   -0.653602   -3.376512
     54          6           0       -0.601272   -0.588869   -2.179789
     55          6           0       -1.297462   -0.372641   -0.937475
     56          1           0        2.369577    0.144161    1.536408
     57          1           0       -0.469242    2.160623   -0.551296
     58          1           0        0.349985    3.969247   -2.020090
     59          1           0        2.629635    3.822904   -3.029255
     60          1           0        4.118161    1.927324   -2.428600
     61          1           0       -0.104244   -2.695157    0.468754
     62          1           0        0.989475   -4.821278   -0.171478
     63          1           0        3.268458   -4.787427   -1.190160
     64          1           0        4.464414   -2.639193   -1.463006
     65          1           0        6.790773   -1.251015   -1.501150
     66          1           0        8.252875   -3.026919   -0.578327
     67          1           0        7.948087   -3.803812    1.769070
     68          1           0        6.180688   -2.772190    3.190669
     69          1           0        4.736320   -0.977922    2.272594
     70          1           0        3.681608    2.132438    1.204505
     71          1           0        4.607106    4.388297    1.620086
     72          1           0        6.798904    5.044666    0.627849
     73          1           0        8.066679    3.402091   -0.751552
     74          1           0        7.159067    1.135277   -1.134966
     75          1           0       -4.704405   -0.014753    2.527760
     76          1           0       -3.664249   -0.251454    4.746064
     77          1           0       -1.184400   -0.609063    4.917426
     78          1           0        0.210453   -0.605725    2.924073
     79          1           0       -7.408697    0.843991    1.089264
     80          1           0       -8.200434    3.135750    1.506751
     81          1           0       -6.722410    5.088985    1.037240
     82          1           0       -4.423373    4.703340    0.147909
     83          1           0       -3.625478    2.411678   -0.289476
     84          1           0       -4.356658   -2.482754    0.542403
     85          1           0       -5.726120   -4.464961    0.015714
     86          1           0       -7.963413   -4.201701   -1.056893
     87          1           0       -8.795171   -1.918000   -1.616582
     88          1           0       -7.430620    0.065098   -1.109956
     89          1           0       -4.455982   -0.175187   -2.331937
     90          1           0       -3.175606   -0.512798   -4.406171
     91          1           0       -0.687288   -0.835219   -4.290763
     92          1           0        0.476239   -0.727477   -2.179851
 ---------------------------------------------------------------------
 Rotational constants (GHZ):      0.1030104      0.0307051      0.0280033
 Standard basis: CC-pVDZ (5D, 7F)
 There are  1010 symmetry adapted cartesian basis functions of A   symmetry.
 There are   955 symmetry adapted basis functions of A   symmetry.
   955 basis functions,  2074 primitive gaussians,  1010 cartesian basis functions
   185 alpha electrons      184 beta electrons
       nuclear repulsion energy      6978.6214210673 Hartrees.
 NAtoms=   92 NActive=   92 NUniq=   92 SFac= 1.00D+00 NAtFMM=   60 NAOKFM=T Big=T
 Integral buffers will be    131072 words long.
 Raffenetti 2 integral format.
 Two-electron integral symmetry is turned on.
 Nuclear repulsion after empirical dispersion term =     6978.5228636965 Hartrees.
 ------------------------------------------------------------------------------
 Polarizable Continuum Model (PCM)
 =================================
 Model                : C-PCM.
 Atomic radii         : UFF (Universal Force Field).
 Polarization charges : Total charges.
 Charge compensation  : None.
 Solution method      : On-the-fly selection.
 Cavity type          : Scaled VdW (van der Waals Surface) (Alpha=1.100).
 Cavity algorithm     : GePol (No added spheres)
                        Default sphere list used, NSphG=   92.
                        Lebedev-Laikov grids with approx.  5.0 points / Ang**2.
                        Smoothing algorithm: Karplus/York (Gamma=1.0000).
                        Polarization charges: spherical gaussians, with
                                              point-specific exponents (IZeta= 3).
                        Self-potential: point-specific (ISelfS= 7).
                        Self-field    : sphere-specific E.n sum rule (ISelfD= 2).
 Solvent              : n,n-DiMethylFormamide, Eps=  37.219000 Eps(inf)=   2.046330
 ------------------------------------------------------------------------------
 One-electron integrals computed using PRISM.
 NBasis=   955 RedAO= T EigKep=  6.40D-05  NBF=   955
 NBsUse=   955 1.00D-06 EigRej= -1.00D+00 NBFU=   955
 Initial guess from the checkpoint file:  "D:\Yaroslav\pink-mystery\OS3\conf1\OS3_conf1_1067kjm_opt.chk"
 B after Tr=     0.000000    0.000000    0.000000
         Rot=    1.000000    0.000000    0.000000    0.000000 Ang=   0.00 deg.
 Initial guess <Sx>= 0.0000 <Sy>= 0.0000 <Sz>= 0.5000 <S**2>= 0.7961 S= 0.5228
 Requested convergence on RMS density matrix=1.00D-08 within 128 cycles.
 Requested convergence on MAX density matrix=1.00D-06.
 Requested convergence on             energy=1.00D-06.
 No special actions if energy rises.
 Inv3:  Mode=1 IEnd=   115022592.
 Iteration    1 A*A^-1 deviation from unit magnitude is 7.11D-15 for    778.
 Iteration    1 A*A^-1 deviation from orthogonality  is 4.61D-15 for   5722    778.
 Iteration    1 A^-1*A deviation from unit magnitude is 5.33D-15 for    539.
 Iteration    1 A^-1*A deviation from orthogonality  is 3.78D-15 for   4714   2495.
 Error on total polarization charges =  0.01923
 SCF Done:  E(UwB97XD) =  -2154.68412684     A.U. after    1 cycles
            NFock=  1  Conv=0.30D-08     -V/T= 2.0068
 <Sx>= 0.0000 <Sy>= 0.0000 <Sz>= 0.5000 <S**2>= 0.7961 S= 0.5228
 <L.S>= 0.000000000000E+00
 Annihilation of the first spin contaminant:
 S**2 before annihilation     0.7961,   after     0.7519
 DoSCS=F DFT=T ScalE2(SS,OS)=  1.000000  1.000000
 ExpMin= 1.22D-01 ExpMax= 1.17D+04 ExpMxC= 4.01D+02 IAcc=3 IRadAn=         5 AccDes= 0.00D+00
 HarFok:  IExCor=  205 AccDes= 0.00D+00 IRadAn=         5 IDoV=-2 UseB2=F ITyADJ=14
 ICtDFT= 12500011 ScaDFX=  1.000000  1.000000  1.000000  1.000000
 Range of M.O.s used for correlation:    56   955
 NBasis=   955 NAE=   185 NBE=   184 NFC=    55 NFV=     0
 NROrb=    900 NOA=   130 NOB=   129 NVA=   770 NVB=   771

 **** Warning!!: The largest alpha MO coefficient is  0.20749004D+02


 **** Warning!!: The largest beta MO coefficient is  0.20715491D+02

 Would need an additional        634170700000 words for in-memory AO integral storage.
 NEqPCM:  Using non-equilibrium solvation (IEInf=1, Eps=  37.2190, EpsInf=   2.0463)
 Inv3:  Mode=1 IEnd=   115022592.
 Iteration    1 A*A^-1 deviation from unit magnitude is 7.11D-15 for    778.
 Iteration    1 A*A^-1 deviation from orthogonality  is 4.61D-15 for   5722    778.
 Iteration    1 A^-1*A deviation from unit magnitude is 5.33D-15 for    539.
 Iteration    1 A^-1*A deviation from orthogonality  is 3.78D-15 for   4714   2495.
 Orbital symmetries:
 Alpha Orbitals:
       Occupied  (A) (A) (A) (A) (A) (A) (A) (A) (A) (A) (A) (A)
                 (A) (A) (A) (A) (A) (A) (A) (A) (A) (A) (A) (A)
                 (A) (A) (A) (A) (A) (A) (A) (A) (A) (A) (A) (A)
                 (A) (A) (A) (A) (A) (A) (A) (A) (A) (A) (A) (A)
                 (A) (A) (A) (A) (A) (A) (A) (A) (A) (A) (A) (A)
                 (A) (A) (A) (A) (A) (A) (A) (A) (A) (A) (A) (A)
                 (A) (A) (A) (A) (A) (A) (A) (A) (A) (A) (A) (A)
                 (A) (A) (A) (A) (A) (A) (A) (A) (A) (A) (A) (A)
                 (A) (A) (A) (A) (A) (A) (A) (A) (A) (A) (A) (A)
                 (A) (A) (A) (A) (A) (A) (A) (A) (A) (A) (A) (A)
                 (A) (A) (A) (A) (A) (A) (A) (A) (A) (A) (A) (A)
                 (A) (A) (A) (A) (A) (A) (A) (A) (A) (A) (A) (A)
                 (A) (A) (A) (A) (A) (A) (A) (A) (A) (A) (A) (A)
                 (A) (A) (A) (A) (A) (A) (A) (A) (A) (A) (A) (A)
                 (A) (A) (A) (A) (A) (A) (A) (A) (A) (A) (A) (A)
                 (A) (A) (A) (A) (A)
       Virtual   (A) (A) (A) (A) (A) (A) (A) (A) (A) (A) (A) (A)
                 (A) (A) (A) (A) (A) (A) (A) (A) (A) (A) (A) (A)
                 (A) (A) (A) (A) (A) (A) (A) (A) (A) (A) (A) (A)
                 (A) (A) (A) (A) (A) (A) (A) (A) (A) (A) (A) (A)
                 (A) (A) (A) (A) (A) (A) (A) (A) (A) (A) (A) (A)
                 (A) (A) (A) (A) (A) (A) (A) (A) (A) (A) (A) (A)
                 (A) (A) (A) (A) (A) (A) (A) (A) (A) (A) (A) (A)
                 (A) (A) (A) (A) (A) (A) (A) (A) (A) (A) (A) (A)
                 (A) (A) (A) (A) (A) (A) (A) (A) (A) (A) (A) (A)
                 (A) (A) (A) (A) (A) (A) (A) (A) (A) (A) (A) (A)
                 (A) (A) (A) (A) (A) (A) (A) (A) (A) (A) (A) (A)
                 (A) (A) (A) (A) (A) (A) (A) (A) (A) (A) (A) (A)
                 (A) (A) (A) (A) (A) (A) (A) (A) (A) (A) (A) (A)
                 (A) (A) (A) (A) (A) (A) (A) (A) (A) (A) (A) (A)
                 (A) (A) (A) (A) (A) (A) (A) (A) (A) (A) (A) (A)
                 (A) (A) (A) (A) (A) (A) (A) (A) (A) (A) (A) (A)
                 (A) (A) (A) (A) (A) (A) (A) (A) (A) (A) (A) (A)
                 (A) (A) (A) (A) (A) (A) (A) (A) (A) (A) (A) (A)
                 (A) (A) (A) (A) (A) (A) (A) (A) (A) (A) (A) (A)
                 (A) (A) (A) (A) (A) (A) (A) (A) (A) (A) (A) (A)
                 (A) (A) (A) (A) (A) (A) (A) (A) (A) (A) (A) (A)
                 (A) (A) (A) (A) (A) (A) (A) (A) (A) (A) (A) (A)
                 (A) (A) (A) (A) (A) (A) (A) (A) (A) (A) (A) (A)
                 (A) (A) (A) (A) (A) (A) (A) (A) (A) (A) (A) (A)
                 (A) (A) (A) (A) (A) (A) (A) (A) (A) (A) (A) (A)
                 (A) (A) (A) (A) (A) (A) (A) (A) (A) (A) (A) (A)
                 (A) (A) (A) (A) (A) (A) (A) (A) (A) (A) (A) (A)
                 (A) (A) (A) (A) (A) (A) (A) (A) (A) (A) (A) (A)
                 (A) (A) (A) (A) (A) (A) (A) (A) (A) (A) (A) (A)
                 (A) (A) (A) (A) (A) (A) (A) (A) (A) (A) (A) (A)
                 (A) (A) (A) (A) (A) (A) (A) (A) (A) (A) (A) (A)
                 (A) (A) (A) (A) (A) (A) (A) (A) (A) (A) (A) (A)
                 (A) (A) (A) (A) (A) (A) (A) (A) (A) (A) (A) (A)
                 (A) (A) (A) (A) (A) (A) (A) (A) (A) (A) (A) (A)
                 (A) (A) (A) (A) (A) (A) (A) (A) (A) (A) (A) (A)
                 (A) (A) (A) (A) (A) (A) (A) (A) (A) (A) (A) (A)
                 (A) (A) (A) (A) (A) (A) (A) (A) (A) (A) (A) (A)
                 (A) (A) (A) (A) (A) (A) (A) (A) (A) (A) (A) (A)
                 (A) (A) (A) (A) (A) (A) (A) (A) (A) (A) (A) (A)
                 (A) (A) (A) (A) (A) (A) (A) (A) (A) (A) (A) (A)
                 (A) (A) (A) (A) (A) (A) (A) (A) (A) (A) (A) (A)
                 (A) (A) (A) (A) (A) (A) (A) (A) (A) (A) (A) (A)
                 (A) (A) (A) (A) (A) (A) (A) (A) (A) (A) (A) (A)
                 (A) (A) (A) (A) (A) (A) (A) (A) (A) (A) (A) (A)
                 (A) (A) (A) (A) (A) (A) (A) (A) (A) (A) (A) (A)
                 (A) (A) (A) (A) (A) (A) (A) (A) (A) (A) (A) (A)
                 (A) (A) (A) (A) (A) (A) (A) (A) (A) (A) (A) (A)
                 (A) (A) (A) (A) (A) (A) (A) (A) (A) (A) (A) (A)
                 (A) (A) (A) (A) (A) (A) (A) (A) (A) (A) (A) (A)
                 (A) (A) (A) (A) (A) (A) (A) (A) (A) (A) (A) (A)
                 (A) (A) (A) (A) (A) (A) (A) (A) (A) (A) (A) (A)
                 (A) (A) (A) (A) (A) (A) (A) (A) (A) (A) (A) (A)
                 (A) (A) (A) (A) (A) (A) (A) (A) (A) (A) (A) (A)
                 (A) (A) (A) (A) (A) (A) (A) (A) (A) (A) (A) (A)
                 (A) (A) (A) (A) (A) (A) (A) (A) (A) (A) (A) (A)
                 (A) (A) (A) (A) (A) (A) (A) (A) (A) (A) (A) (A)
                 (A) (A) (A) (A) (A) (A) (A) (A) (A) (A) (A) (A)
                 (A) (A) (A) (A) (A) (A) (A) (A) (A) (A) (A) (A)
                 (A) (A) (A) (A) (A) (A) (A) (A) (A) (A) (A) (A)
                 (A) (A) (A) (A) (A) (A) (A) (A) (A) (A) (A) (A)
                 (A) (A) (A) (A) (A) (A) (A) (A) (A) (A) (A) (A)
                 (A) (A) (A) (A) (A) (A) (A) (A) (A) (A) (A) (A)
                 (A) (A) (A) (A) (A) (A) (A) (A) (A) (A) (A) (A)
                 (A) (A) (A) (A) (A) (A) (A) (A) (A) (A) (A) (A)
                 (A) (A)
 Beta  Orbitals:
       Occupied  (A) (A) (A) (A) (A) (A) (A) (A) (A) (A) (A) (A)
                 (A) (A) (A) (A) (A) (A) (A) (A) (A) (A) (A) (A)
                 (A) (A) (A) (A) (A) (A) (A) (A) (A) (A) (A) (A)
                 (A) (A) (A) (A) (A) (A) (A) (A) (A) (A) (A) (A)
                 (A) (A) (A) (A) (A) (A) (A) (A) (A) (A) (A) (A)
                 (A) (A) (A) (A) (A) (A) (A) (A) (A) (A) (A) (A)
                 (A) (A) (A) (A) (A) (A) (A) (A) (A) (A) (A) (A)
                 (A) (A) (A) (A) (A) (A) (A) (A) (A) (A) (A) (A)
                 (A) (A) (A) (A) (A) (A) (A) (A) (A) (A) (A) (A)
                 (A) (A) (A) (A) (A) (A) (A) (A) (A) (A) (A) (A)
                 (A) (A) (A) (A) (A) (A) (A) (A) (A) (A) (A) (A)
                 (A) (A) (A) (A) (A) (A) (A) (A) (A) (A) (A) (A)
                 (A) (A) (A) (A) (A) (A) (A) (A) (A) (A) (A) (A)
                 (A) (A) (A) (A) (A) (A) (A) (A) (A) (A) (A) (A)
                 (A) (A) (A) (A) (A) (A) (A) (A) (A) (A) (A) (A)
                 (A) (A) (A) (A)
       Virtual   (A) (A) (A) (A) (A) (A) (A) (A) (A) (A) (A) (A)
                 (A) (A) (A) (A) (A) (A) (A) (A) (A) (A) (A) (A)
                 (A) (A) (A) (A) (A) (A) (A) (A) (A) (A) (A) (A)
                 (A) (A) (A) (A) (A) (A) (A) (A) (A) (A) (A) (A)
                 (A) (A) (A) (A) (A) (A) (A) (A) (A) (A) (A) (A)
                 (A) (A) (A) (A) (A) (A) (A) (A) (A) (A) (A) (A)
                 (A) (A) (A) (A) (A) (A) (A) (A) (A) (A) (A) (A)
                 (A) (A) (A) (A) (A) (A) (A) (A) (A) (A) (A) (A)
                 (A) (A) (A) (A) (A) (A) (A) (A) (A) (A) (A) (A)
                 (A) (A) (A) (A) (A) (A) (A) (A) (A) (A) (A) (A)
                 (A) (A) (A) (A) (A) (A) (A) (A) (A) (A) (A) (A)
                 (A) (A) (A) (A) (A) (A) (A) (A) (A) (A) (A) (A)
                 (A) (A) (A) (A) (A) (A) (A) (A) (A) (A) (A) (A)
                 (A) (A) (A) (A) (A) (A) (A) (A) (A) (A) (A) (A)
                 (A) (A) (A) (A) (A) (A) (A) (A) (A) (A) (A) (A)
                 (A) (A) (A) (A) (A) (A) (A) (A) (A) (A) (A) (A)
                 (A) (A) (A) (A) (A) (A) (A) (A) (A) (A) (A) (A)
                 (A) (A) (A) (A) (A) (A) (A) (A) (A) (A) (A) (A)
                 (A) (A) (A) (A) (A) (A) (A) (A) (A) (A) (A) (A)
                 (A) (A) (A) (A) (A) (A) (A) (A) (A) (A) (A) (A)
                 (A) (A) (A) (A) (A) (A) (A) (A) (A) (A) (A) (A)
                 (A) (A) (A) (A) (A) (A) (A) (A) (A) (A) (A) (A)
                 (A) (A) (A) (A) (A) (A) (A) (A) (A) (A) (A) (A)
                 (A) (A) (A) (A) (A) (A) (A) (A) (A) (A) (A) (A)
                 (A) (A) (A) (A) (A) (A) (A) (A) (A) (A) (A) (A)
                 (A) (A) (A) (A) (A) (A) (A) (A) (A) (A) (A) (A)
                 (A) (A) (A) (A) (A) (A) (A) (A) (A) (A) (A) (A)
                 (A) (A) (A) (A) (A) (A) (A) (A) (A) (A) (A) (A)
                 (A) (A) (A) (A) (A) (A) (A) (A) (A) (A) (A) (A)
                 (A) (A) (A) (A) (A) (A) (A) (A) (A) (A) (A) (A)
                 (A) (A) (A) (A) (A) (A) (A) (A) (A) (A) (A) (A)
                 (A) (A) (A) (A) (A) (A) (A) (A) (A) (A) (A) (A)
                 (A) (A) (A) (A) (A) (A) (A) (A) (A) (A) (A) (A)
                 (A) (A) (A) (A) (A) (A) (A) (A) (A) (A) (A) (A)
                 (A) (A) (A) (A) (A) (A) (A) (A) (A) (A) (A) (A)
                 (A) (A) (A) (A) (A) (A) (A) (A) (A) (A) (A) (A)
                 (A) (A) (A) (A) (A) (A) (A) (A) (A) (A) (A) (A)
                 (A) (A) (A) (A) (A) (A) (A) (A) (A) (A) (A) (A)
                 (A) (A) (A) (A) (A) (A) (A) (A) (A) (A) (A) (A)
                 (A) (A) (A) (A) (A) (A) (A) (A) (A) (A) (A) (A)
                 (A) (A) (A) (A) (A) (A) (A) (A) (A) (A) (A) (A)
                 (A) (A) (A) (A) (A) (A) (A) (A) (A) (A) (A) (A)
                 (A) (A) (A) (A) (A) (A) (A) (A) (A) (A) (A) (A)
                 (A) (A) (A) (A) (A) (A) (A) (A) (A) (A) (A) (A)
                 (A) (A) (A) (A) (A) (A) (A) (A) (A) (A) (A) (A)
                 (A) (A) (A) (A) (A) (A) (A) (A) (A) (A) (A) (A)
                 (A) (A) (A) (A) (A) (A) (A) (A) (A) (A) (A) (A)
                 (A) (A) (A) (A) (A) (A) (A) (A) (A) (A) (A) (A)
                 (A) (A) (A) (A) (A) (A) (A) (A) (A) (A) (A) (A)
                 (A) (A) (A) (A) (A) (A) (A) (A) (A) (A) (A) (A)
                 (A) (A) (A) (A) (A) (A) (A) (A) (A) (A) (A) (A)
                 (A) (A) (A) (A) (A) (A) (A) (A) (A) (A) (A) (A)
                 (A) (A) (A) (A) (A) (A) (A) (A) (A) (A) (A) (A)
                 (A) (A) (A) (A) (A) (A) (A) (A) (A) (A) (A) (A)
                 (A) (A) (A) (A) (A) (A) (A) (A) (A) (A) (A) (A)
                 (A) (A) (A) (A) (A) (A) (A) (A) (A) (A) (A) (A)
                 (A) (A) (A) (A) (A) (A) (A) (A) (A) (A) (A) (A)
                 (A) (A) (A) (A) (A) (A) (A) (A) (A) (A) (A) (A)
                 (A) (A) (A) (A) (A) (A) (A) (A) (A) (A) (A) (A)
                 (A) (A) (A) (A) (A) (A) (A) (A) (A) (A) (A) (A)
                 (A) (A) (A) (A) (A) (A) (A) (A) (A) (A) (A) (A)
                 (A) (A) (A) (A) (A) (A) (A) (A) (A) (A) (A) (A)
                 (A) (A) (A) (A) (A) (A) (A) (A) (A) (A) (A) (A)
                 (A) (A) (A) (A) (A) (A) (A) (A) (A) (A) (A) (A)
                 (A) (A) (A)
   240 initial guesses have been made.
 Convergence on wavefunction:    0.001000000000000
 Iteration     1 Dimension   240 NMult     0 NNew    240
 CISAX will form   120 AO SS matrices at one time.
 New state      1 was old state      3
 New state      2 was old state      1
 New state      3 was old state      2
 New state      4 was old state     16
 New state      5 was old state     24
 New state      6 was old state     36
 New state      7 was old state     33
 New state      9 was old state      5
 New state     10 was old state     22
 New state     11 was old state     21
 New state     12 was old state     27
 New state     13 was old state     15
 New state     14 was old state     70
 New state     15 was old state     72
 New state     16 was old state     26
 New state     17 was old state     34
 New state     18 was old state     11
 New state     19 was old state     31
 New state     20 was old state      4
 New state     21 was old state    103
 New state     22 was old state     37
 New state     23 was old state    165
 New state     24 was old state      7
 New state     25 was old state     35
 New state     26 was old state     12
 New state     27 was old state    116
 New state     28 was old state      6
 New state     29 was old state     10
 New state     30 was old state     93
 New state     31 was old state     90
 New state     32 was old state    135
 New state     33 was old state    136
 New state     34 was old state     13
 New state     35 was old state     30
 New state     36 was old state     41
 New state     37 was old state     23
 New state     38 was old state    107
 New state     39 was old state     73
 New state     40 was old state      9
 New state     41 was old state     39
 New state     42 was old state     95
 New state     43 was old state     25
 New state     44 was old state     14
 New state     45 was old state     47
 New state     46 was old state    106
 New state     47 was old state     80
 New state     48 was old state     56
 New state     49 was old state     60
 New state     50 was old state     44
 New state     51 was old state     29
 New state     52 was old state    156
 New state     53 was old state     96
 New state     54 was old state    133
 New state     55 was old state     51
 New state     56 was old state    120
 New state     57 was old state     55
 New state     58 was old state     82
 New state     59 was old state     53
 New state     60 was old state     66
 Iteration     2 Dimension   360 NMult   240 NNew    120
 New state      3 was old state      6
 New state      4 was old state      3
 New state      5 was old state      4
 New state      6 was old state      7
 New state      7 was old state      9
 New state      8 was old state     15
 New state      9 was old state      5
 New state     10 was old state      8
 New state     11 was old state     10
 New state     12 was old state     11
 New state     13 was old state     21
 New state     14 was old state     12
 New state     15 was old state     14
 New state     16 was old state     13
 New state     17 was old state     23
 New state     18 was old state     16
 New state     19 was old state     46
 New state     20 was old state     17
 New state     21 was old state     26
 New state     22 was old state     27
 New state     23 was old state     22
 New state     24 was old state     32
 New state     25 was old state     18
 New state     26 was old state     54
 New state     27 was old state     19
 New state     28 was old state     30
 New state     29 was old state     25
 New state     30 was old state     20
 New state     31 was old state     40
 New state     32 was old state     38
 New state     33 was old state     42
 New state     34 was old state     24
 New state     35 was old state     33
 New state     36 was old state     29
 New state     37 was old state     28
 New state     38 was old state     34
 New state     39 was old state     56
 New state     40 was old state     39
 New state     41 was old state     36
 New state     42 was old state     35
 New state     44 was old state     31
 New state     45 was old state     48
 New state     46 was old state     50
 New state     47 was old state     44
 New state     48 was old state     37
 New state     49 was old state     53
 New state     50 was old state     52
 New state     51 was old state     41
 New state     52 was old state     45
 New state     53 was old state     47
 New state     54 was old state     49
 New state     55 was old state     51
 New state     56 was old state     59
 New state     57 was old state     55
 New state     58 was old state     57
 New state     59 was old state     60
 New state     60 was old state     58
 Iteration     3 Dimension   480 NMult   360 NNew    120
 New state     10 was old state     13
 New state     11 was old state     10
 New state     13 was old state     11
 New state     14 was old state     15
 New state     15 was old state     19
 New state     16 was old state     14
 New state     17 was old state     16
 New state     18 was old state     17
 New state     19 was old state     24
 New state     20 was old state     18
 New state     21 was old state     20
 New state     22 was old state     21
 New state     23 was old state     26
 New state     24 was old state     22
 New state     25 was old state     23
 New state     26 was old state     28
 New state     27 was old state     25
 New state     28 was old state     33
 New state     29 was old state     27
 New state     31 was old state     29
 New state     32 was old state     31
 New state     33 was old state     32
 New state     34 was old state     42
 New state     35 was old state     39
 New state     36 was old state     34
 New state     37 was old state     35
 New state     38 was old state     36
 New state     39 was old state     37
 New state     40 was old state     38
 New state     41 was old state     40
 New state     42 was old state     58
 New state     44 was old state     41
 New state     45 was old state     44
 New state     46 was old state     45
 New state     47 was old state     57
 New state     48 was old state     46
 No map to state     49
 New state     51 was old state     47
 New state     52 was old state     48
 No map to state     53
 New state     54 was old state     49
 New state     55 was old state     51
 New state     56 was old state     52
 New state     57 was old state     53
 New state     58 was old state     54
 New state     59 was old state     56
 New state     60 was old state     55
 Iteration     4 Dimension   600 NMult   480 NNew    120
 New state     12 was old state     14
 New state     13 was old state     15
 New state     14 was old state     12
 New state     15 was old state     13
 New state     17 was old state     19
 New state     18 was old state     17
 New state     19 was old state     18
 New state     25 was old state     26
 New state     26 was old state     25
 New state     27 was old state     44
 New state     28 was old state     27
 New state     29 was old state     28
 New state     30 was old state     46
 New state     31 was old state     29
 New state     32 was old state     30
 New state     33 was old state     32
 New state     34 was old state     33
 New state     35 was old state     31
 New state     36 was old state     35
 New state     37 was old state     34
 New state     38 was old state     49
 New state     40 was old state     36
 New state     41 was old state     40
 New state     42 was old state     37
 New state     43 was old state     38
 New state     44 was old state     47
 New state     45 was old state     41
 New state     46 was old state     42
 New state     47 was old state     43
 New state     48 was old state     45
 New state     49 was old state     48
 New state     50 was old state     52
 New state     52 was old state     50
 New state     55 was old state     57
 New state     56 was old state     55
 New state     57 was old state     59
 New state     58 was old state     56
 New state     59 was old state     58
 Iteration     5 Dimension   720 NMult   600 NNew    120
 New state     23 was old state     27
 New state     24 was old state     23
 New state     25 was old state     24
 New state     26 was old state     30
 New state     27 was old state     25
 New state     28 was old state     26
 New state     29 was old state     28
 New state     30 was old state     29
 New state     37 was old state     38
 New state     38 was old state     37
 New state     40 was old state     58
 New state     41 was old state     40
 New state     42 was old state     41
 New state     43 was old state     42
 New state     44 was old state     43
 New state     45 was old state     44
 New state     46 was old state     45
 New state     47 was old state     46
 New state     48 was old state     47
 New state     49 was old state     48
 New state     51 was old state     49
 New state     52 was old state     51
 New state     53 was old state     52
 New state     54 was old state     53
 New state     55 was old state     54
 New state     56 was old state     55
 New state     58 was old state     56
 New state     59 was old state     60
 New state     60 was old state     59
 Iteration     6 Dimension   832 NMult   720 NNew    112
 New state     25 was old state     26
 New state     26 was old state     25
 New state     37 was old state     39
 New state     38 was old state     37
 New state     39 was old state     38
 New state     49 was old state     57
 New state     50 was old state     49
 New state     51 was old state     50
 New state     52 was old state     51
 New state     53 was old state     52
 New state     54 was old state     53
 New state     55 was old state     54
 New state     56 was old state     55
 New state     57 was old state     56
 No map to state     60
 Iteration     7 Dimension   924 NMult   832 NNew     92
 Davidson failed to converge within maximum sub-space dimensions.
  Restart with updated initial guess:
 Iteration     1 Dimension   186 NMult   924 NNew    186
 Iteration     2 Dimension   306 NMult  1110 NNew    120
 Iteration     3 Dimension   312 NMult  1230 NNew      6
 Iteration     4 Dimension   314 NMult  1236 NNew      2
 ***********************************************************************
 Excited states from <AA,BB:AA,BB> singles matrix:
 ***********************************************************************
 
 ExtSpn:  IState=     1 X2= 1.125 Y2= 0.125 X2-Y2-1= 4.44D-16
          S2Grnd=  0.796 Ra=  0.471 Rb=  0.468 T=  0.938 S2Ext=  1.877 S2=  2.674
 ExtSpn:  IState=     2 X2= 1.004 Y2= 0.004 X2-Y2-1= 4.88D-15
          S2Grnd=  0.796 Ra=  0.035 Rb=  0.093 T= -0.069 S2Ext=  0.060 S2=  0.856
 ExtSpn:  IState=     3 X2= 1.055 Y2= 0.055 X2-Y2-1=-1.44D-15
          S2Grnd=  0.796 Ra=  0.500 Rb=  0.500 T=  1.000 S2Ext=  2.000 S2=  2.796
 ExtSpn:  IState=     4 X2= 1.004 Y2= 0.004 X2-Y2-1= 8.88D-16
          S2Grnd=  0.796 Ra=  0.082 Rb=  0.022 T=  0.029 S2Ext=  0.133 S2=  0.929
 ExtSpn:  IState=     5 X2= 1.031 Y2= 0.031 X2-Y2-1=-8.77D-15
          S2Grnd=  0.796 Ra=  0.113 Rb=  0.109 T=  0.210 S2Ext=  0.432 S2=  1.228
 ExtSpn:  IState=     6 X2= 1.034 Y2= 0.034 X2-Y2-1= 6.66D-16
          S2Grnd=  0.796 Ra=  0.490 Rb=  0.497 T=  0.986 S2Ext=  1.973 S2=  2.769
 ExtSpn:  IState=     7 X2= 1.012 Y2= 0.012 X2-Y2-1= 2.22D-15
          S2Grnd=  0.796 Ra=  0.432 Rb=  0.436 T= -0.853 S2Ext=  0.015 S2=  0.811
 ExtSpn:  IState=     8 X2= 1.053 Y2= 0.053 X2-Y2-1= 7.99D-15
          S2Grnd=  0.796 Ra=  0.500 Rb=  0.500 T=  1.000 S2Ext=  2.000 S2=  2.796
 ExtSpn:  IState=     9 X2= 1.007 Y2= 0.007 X2-Y2-1=-1.38D-14
          S2Grnd=  0.796 Ra=  0.427 Rb=  0.521 T=  0.927 S2Ext=  1.875 S2=  2.671
 ExtSpn:  IState=    10 X2= 1.054 Y2= 0.054 X2-Y2-1= 5.77D-15
          S2Grnd=  0.796 Ra=  0.500 Rb=  0.500 T=  1.000 S2Ext=  2.000 S2=  2.796
 ExtSpn:  IState=    11 X2= 1.005 Y2= 0.005 X2-Y2-1= 7.33D-15
          S2Grnd=  0.796 Ra=  0.170 Rb=  0.110 T=  0.189 S2Ext=  0.469 S2=  1.265
 ExtSpn:  IState=    12 X2= 1.030 Y2= 0.030 X2-Y2-1= 1.33D-15
          S2Grnd=  0.796 Ra=  0.222 Rb=  0.238 T=  0.416 S2Ext=  0.876 S2=  1.672
 ExtSpn:  IState=    13 X2= 1.056 Y2= 0.056 X2-Y2-1=-1.89D-15
          S2Grnd=  0.796 Ra=  0.500 Rb=  0.500 T=  1.000 S2Ext=  2.000 S2=  2.796
 ExtSpn:  IState=    14 X2= 1.010 Y2= 0.010 X2-Y2-1= 1.35D-14
          S2Grnd=  0.796 Ra=  0.193 Rb=  0.180 T=  0.289 S2Ext=  0.661 S2=  1.458
 ExtSpn:  IState=    15 X2= 1.009 Y2= 0.009 X2-Y2-1= 7.99D-15
          S2Grnd=  0.796 Ra=  0.405 Rb=  0.310 T=  0.671 S2Ext=  1.386 S2=  2.182
 ExtSpn:  IState=    16 X2= 1.006 Y2= 0.006 X2-Y2-1= 1.11D-15
          S2Grnd=  0.796 Ra=  0.410 Rb=  0.467 T= -0.792 S2Ext=  0.085 S2=  0.881
 ExtSpn:  IState=    17 X2= 1.040 Y2= 0.040 X2-Y2-1= 6.88D-15
          S2Grnd=  0.796 Ra=  0.500 Rb=  0.500 T=  1.000 S2Ext=  2.000 S2=  2.796
 ExtSpn:  IState=    18 X2= 1.005 Y2= 0.005 X2-Y2-1=-3.33D-15
          S2Grnd=  0.796 Ra=  0.023 Rb=  0.078 T= -0.038 S2Ext=  0.063 S2=  0.859
 ExtSpn:  IState=    19 X2= 1.022 Y2= 0.022 X2-Y2-1=-3.22D-15
          S2Grnd=  0.796 Ra=  0.480 Rb=  0.484 T=  0.956 S2Ext=  1.919 S2=  2.716
 ExtSpn:  IState=    20 X2= 1.006 Y2= 0.006 X2-Y2-1= 7.33D-15
          S2Grnd=  0.796 Ra=  0.098 Rb=  0.097 T=  0.117 S2Ext=  0.312 S2=  1.108
 ExtSpn:  IState=    21 X2= 1.007 Y2= 0.007 X2-Y2-1=-2.33D-15
          S2Grnd=  0.796 Ra=  0.112 Rb=  0.081 T=  0.186 S2Ext=  0.379 S2=  1.175
 ExtSpn:  IState=    22 X2= 1.004 Y2= 0.004 X2-Y2-1=-1.65D-14
          S2Grnd=  0.796 Ra=  0.500 Rb=  0.498 T=  0.999 S2Ext=  1.998 S2=  2.794
 ExtSpn:  IState=    23 X2= 1.019 Y2= 0.019 X2-Y2-1= 8.88D-16
          S2Grnd=  0.796 Ra=  0.427 Rb=  0.443 T=  0.868 S2Ext=  1.738 S2=  2.534
 ExtSpn:  IState=    24 X2= 1.004 Y2= 0.004 X2-Y2-1= 9.55D-15
          S2Grnd=  0.796 Ra=  0.499 Rb=  0.501 T=  1.000 S2Ext=  1.999 S2=  2.795
 ExtSpn:  IState=    25 X2= 1.011 Y2= 0.011 X2-Y2-1=-1.11D-16
          S2Grnd=  0.796 Ra=  0.363 Rb=  0.354 T=  0.711 S2Ext=  1.428 S2=  2.224
 ExtSpn:  IState=    26 X2= 1.016 Y2= 0.016 X2-Y2-1= 2.89D-15
          S2Grnd=  0.796 Ra=  0.480 Rb=  0.479 T=  0.945 S2Ext=  1.903 S2=  2.700
 ExtSpn:  IState=    27 X2= 1.004 Y2= 0.004 X2-Y2-1= 8.44D-15
          S2Grnd=  0.796 Ra=  0.496 Rb=  0.502 T=  0.982 S2Ext=  1.979 S2=  2.775
 ExtSpn:  IState=    28 X2= 1.006 Y2= 0.006 X2-Y2-1=-2.44D-15
          S2Grnd=  0.796 Ra=  0.498 Rb=  0.493 T= -0.957 S2Ext=  0.035 S2=  0.831
 ExtSpn:  IState=    29 X2= 1.004 Y2= 0.004 X2-Y2-1= 8.22D-15
          S2Grnd=  0.796 Ra=  0.132 Rb=  0.117 T= -0.015 S2Ext=  0.234 S2=  1.030
 ExtSpn:  IState=    30 X2= 1.003 Y2= 0.003 X2-Y2-1= 6.00D-15
          S2Grnd=  0.796 Ra=  0.497 Rb=  0.498 T=  0.993 S2Ext=  1.989 S2=  2.785
 ExtSpn:  IState=    31 X2= 1.001 Y2= 0.001 X2-Y2-1=-1.55D-15
          S2Grnd=  0.796 Ra=  0.067 Rb=  0.092 T=  0.008 S2Ext=  0.168 S2=  0.964
 ExtSpn:  IState=    32 X2= 1.005 Y2= 0.005 X2-Y2-1=-7.88D-15
          S2Grnd=  0.796 Ra=  0.491 Rb=  0.499 T=  0.986 S2Ext=  1.976 S2=  2.772
 ExtSpn:  IState=    33 X2= 1.006 Y2= 0.006 X2-Y2-1= 2.00D-14
          S2Grnd=  0.796 Ra=  0.515 Rb=  0.475 T=  0.980 S2Ext=  1.970 S2=  2.766
 ExtSpn:  IState=    34 X2= 1.008 Y2= 0.008 X2-Y2-1= 2.22D-15
          S2Grnd=  0.796 Ra=  0.494 Rb=  0.492 T=  0.980 S2Ext=  1.966 S2=  2.762
 ExtSpn:  IState=    35 X2= 1.004 Y2= 0.004 X2-Y2-1=-7.77D-15
          S2Grnd=  0.796 Ra=  0.414 Rb=  0.485 T=  0.138 S2Ext=  1.037 S2=  1.834
 ExtSpn:  IState=    36 X2= 1.004 Y2= 0.004 X2-Y2-1=-2.22D-15
          S2Grnd=  0.796 Ra=  0.444 Rb=  0.462 T=  0.155 S2Ext=  1.062 S2=  1.858
 ExtSpn:  IState=    37 X2= 1.004 Y2= 0.004 X2-Y2-1=-4.11D-15
          S2Grnd=  0.796 Ra=  0.500 Rb=  0.499 T=  0.996 S2Ext=  1.996 S2=  2.792
 ExtSpn:  IState=    38 X2= 1.005 Y2= 0.005 X2-Y2-1=-1.03D-14
          S2Grnd=  0.796 Ra=  0.515 Rb=  0.483 T=  0.980 S2Ext=  1.978 S2=  2.774
 ExtSpn:  IState=    39 X2= 1.001 Y2= 0.001 X2-Y2-1=-9.44D-15
          S2Grnd=  0.796 Ra=  0.737 Rb=  0.078 T=  0.102 S2Ext=  0.916 S2=  1.712
 ExtSpn:  IState=    40 X2= 1.005 Y2= 0.005 X2-Y2-1=-1.07D-14
          S2Grnd=  0.796 Ra=  0.495 Rb=  0.492 T=  0.895 S2Ext=  1.882 S2=  2.678
 ExtSpn:  IState=    41 X2= 1.002 Y2= 0.002 X2-Y2-1= 1.58D-14
          S2Grnd=  0.796 Ra=  0.236 Rb=  0.738 T= -0.239 S2Ext=  0.735 S2=  1.532
 ExtSpn:  IState=    42 X2= 1.006 Y2= 0.006 X2-Y2-1= 2.44D-15
          S2Grnd=  0.796 Ra=  0.513 Rb=  0.481 T=  0.869 S2Ext=  1.862 S2=  2.658
 ExtSpn:  IState=    43 X2= 1.005 Y2= 0.005 X2-Y2-1=-9.66D-15
          S2Grnd=  0.796 Ra=  0.338 Rb=  0.632 T= -0.657 S2Ext=  0.313 S2=  1.110
 ExtSpn:  IState=    44 X2= 1.009 Y2= 0.009 X2-Y2-1= 1.78D-15
          S2Grnd=  0.796 Ra=  0.381 Rb=  0.558 T= -0.754 S2Ext=  0.185 S2=  0.981
 ExtSpn:  IState=    45 X2= 1.002 Y2= 0.002 X2-Y2-1= 7.55D-15
          S2Grnd=  0.796 Ra=  0.486 Rb=  0.267 T=  0.401 S2Ext=  1.154 S2=  1.950
 ExtSpn:  IState=    46 X2= 1.003 Y2= 0.003 X2-Y2-1=-8.10D-15
          S2Grnd=  0.796 Ra=  0.490 Rb=  0.505 T= -0.984 S2Ext=  0.011 S2=  0.807
 ExtSpn:  IState=    47 X2= 1.001 Y2= 0.001 X2-Y2-1=-3.89D-15
          S2Grnd=  0.796 Ra=  0.073 Rb=  0.747 T= -0.015 S2Ext=  0.805 S2=  1.601
 ExtSpn:  IState=    48 X2= 1.003 Y2= 0.003 X2-Y2-1=-1.40D-14
          S2Grnd=  0.796 Ra=  0.479 Rb=  0.512 T= -0.965 S2Ext=  0.025 S2=  0.822
 ExtSpn:  IState=    49 X2= 1.006 Y2= 0.006 X2-Y2-1=-9.55D-15
          S2Grnd=  0.796 Ra=  0.499 Rb=  0.501 T=  1.000 S2Ext=  1.999 S2=  2.796
 ExtSpn:  IState=    50 X2= 1.002 Y2= 0.002 X2-Y2-1= 1.13D-14
          S2Grnd=  0.796 Ra=  0.338 Rb=  0.188 T= -0.239 S2Ext=  0.287 S2=  1.083
 ExtSpn:  IState=    51 X2= 1.005 Y2= 0.005 X2-Y2-1=-2.09D-14
          S2Grnd=  0.796 Ra=  0.169 Rb=  0.128 T=  0.035 S2Ext=  0.332 S2=  1.128
 ExtSpn:  IState=    52 X2= 1.001 Y2= 0.001 X2-Y2-1= 1.58D-14
          S2Grnd=  0.796 Ra=  0.894 Rb=  0.038 T= -0.077 S2Ext=  0.855 S2=  1.651
 ExtSpn:  IState=    53 X2= 1.002 Y2= 0.002 X2-Y2-1= 7.33D-15
          S2Grnd=  0.796 Ra=  0.135 Rb=  0.567 T=  0.277 S2Ext=  0.979 S2=  1.775
 ExtSpn:  IState=    54 X2= 1.002 Y2= 0.002 X2-Y2-1= 9.99D-15
          S2Grnd=  0.796 Ra=  0.497 Rb=  0.498 T= -0.951 S2Ext=  0.044 S2=  0.841
 ExtSpn:  IState=    55 X2= 1.001 Y2= 0.001 X2-Y2-1=-1.78D-15
          S2Grnd=  0.796 Ra=  0.530 Rb=  0.256 T= -0.035 S2Ext=  0.752 S2=  1.548
 ExtSpn:  IState=    56 X2= 1.001 Y2= 0.001 X2-Y2-1= 2.00D-15
          S2Grnd=  0.796 Ra=  0.353 Rb=  0.516 T=  0.048 S2Ext=  0.917 S2=  1.713
 ExtSpn:  IState=    57 X2= 1.001 Y2= 0.001 X2-Y2-1=-1.24D-14
          S2Grnd=  0.796 Ra=  0.625 Rb=  0.214 T= -0.417 S2Ext=  0.422 S2=  1.218
 ExtSpn:  IState=    58 X2= 1.003 Y2= 0.003 X2-Y2-1=-4.77D-15
          S2Grnd=  0.796 Ra=  0.547 Rb=  0.421 T= -0.890 S2Ext=  0.078 S2=  0.875
 ExtSpn:  IState=    59 X2= 1.002 Y2= 0.002 X2-Y2-1=-6.66D-16
          S2Grnd=  0.796 Ra=  0.245 Rb=  0.641 T=  0.422 S2Ext=  1.308 S2=  2.104
 ExtSpn:  IState=    60 X2= 1.002 Y2= 0.002 X2-Y2-1= 2.00D-15
          S2Grnd=  0.796 Ra=  0.303 Rb=  0.514 T=  0.349 S2Ext=  1.166 S2=  1.962
 Ground to excited state transition densities written to RWF  633
 Ground to excited state transition electric dipole moments (Au):
       state          X           Y           Z        Dip. S.      Osc.
         1        -0.0315      0.0036      0.0077      0.0011      0.0000
         2         1.2762     -0.0928      0.0151      1.6374      0.1162
         3        -0.0065      0.0006      0.0002      0.0000      0.0000
         4        -0.6354      0.0419     -0.0341      0.4067      0.0305
         5        -0.0657     -0.0191     -0.0424      0.0065      0.0005
         6        -0.0391      0.0588      0.0070      0.0050      0.0004
         7         1.5968     -0.0715      0.0223      2.5555      0.2166
         8        -0.0004      0.0003     -0.0015      0.0000      0.0000
         9         0.0003     -0.0688     -0.0603      0.0084      0.0007
        10        -0.0003      0.0017      0.0012      0.0000      0.0000
        11        -0.0578     -0.4857     -0.2283      0.2914      0.0263
        12         0.0305     -0.0039      0.0083      0.0010      0.0001
        13        -0.0001      0.0019      0.0004      0.0000      0.0000
        14         0.1289     -0.0255      0.0399      0.0189      0.0017
        15        -0.0818     -0.0825      0.0509      0.0161      0.0015
        16         0.0449      0.5325      0.2572      0.3517      0.0341
        17        -0.0035     -0.0245     -0.0059      0.0006      0.0001
        18        -0.2962     -2.1289     -0.5242      4.8946      0.4792
        19        -0.0133     -0.1478     -0.0371      0.0234      0.0023
        20         0.0954      0.7805     -0.2172      0.6655      0.0683
        21         0.5684     -0.0438      0.0054      0.3250      0.0340
        22         0.0041      0.0005     -0.0020      0.0000      0.0000
        23         0.0031      0.0039      0.0140      0.0002      0.0000
        24         0.0129      0.0026     -0.0085      0.0002      0.0000
        25        -0.1920     -0.0239      0.0594      0.0409      0.0046
        26        -0.1587     -0.0506      0.1521      0.0509      0.0057
        27        -0.1852     -0.0495      0.0047      0.0368      0.0041
        28        -2.0499     -0.5737     -0.3883      4.6821      0.5239
        29        -0.1401     -0.0496     -1.1617      1.3716      0.1554
        30         0.0066      0.0013      0.0972      0.0095      0.0011
        31        -0.0741     -0.2490      0.2487      0.1293      0.0148
        32        -0.0222     -0.0392     -0.0273      0.0028      0.0003
        33        -0.0037      0.0056     -0.0385      0.0015      0.0002
        34        -0.0345     -0.0304     -0.0690      0.0069      0.0008
        35         0.0504     -0.1389     -0.2074      0.0648      0.0076
        36         0.0543     -0.1342     -0.1966      0.0596      0.0070
        37         0.0063     -0.0086     -0.0090      0.0002      0.0000
        38         0.0171     -0.0120      0.0071      0.0005      0.0001
        39        -0.0423     -0.0164      0.1079      0.0137      0.0016
        40        -0.0075     -0.0072      0.0283      0.0009      0.0001
        41         0.1026     -0.0727      0.1912      0.0524      0.0064
        42        -0.0613      0.0319      0.0805      0.0113      0.0014
        43        -0.2130      0.1404      1.6810      2.8908      0.3548
        44        -0.1224      0.0654      2.7222      7.4294      0.9188
        45         0.1878      0.0981     -0.4655      0.2616      0.0326
        46         0.4942      0.4502     -0.2745      0.5223      0.0652
        47         0.0334      0.0895      0.4945      0.2536      0.0318
        48        -0.4740     -0.4964     -0.0880      0.4789      0.0601
        49         0.0075      0.0092      0.0028      0.0001      0.0000
        50         0.0183      0.0816     -0.0841      0.0141      0.0018
        51         1.1183     -0.2485     -0.1717      1.3419      0.1719
        52        -0.2746      0.1858      0.0444      0.1119      0.0144
        53         0.5772      0.2955      0.5795      0.7562      0.0971
        54         0.1265     -0.0405      0.0913      0.0260      0.0034
        55        -0.1106      0.1006      0.2998      0.1123      0.0147
        56         0.0950      0.0313      0.1306      0.0271      0.0036
        57        -0.0939     -0.0943     -0.6848      0.4866      0.0642
        58         0.0261     -0.4358     -0.3832      0.3374      0.0447
        59        -0.2130      0.1294      0.1531      0.0856      0.0115
        60         0.3375      0.0651      0.0072      0.1182      0.0159
 Ground to excited state transition velocity dipole moments (Au):
       state          X           Y           Z        Dip. S.      Osc.
         1         0.0019     -0.0002     -0.0005      0.0000      0.0000
         2        -0.1399      0.0106     -0.0019      0.0197      0.1233
         3         0.0007     -0.0001      0.0000      0.0000      0.0000
         4         0.0739     -0.0054      0.0038      0.0055      0.0327
         5         0.0080      0.0045      0.0062      0.0001      0.0007
         6         0.0050     -0.0070     -0.0011      0.0001      0.0004
         7        -0.2118      0.0100     -0.0041      0.0450      0.2359
         8         0.0001      0.0000      0.0002      0.0000      0.0000
         9         0.0003      0.0104      0.0069      0.0002      0.0008
        10         0.0000     -0.0003     -0.0001      0.0000      0.0000
        11         0.0074      0.0644      0.0333      0.0053      0.0261
        12        -0.0077      0.0010     -0.0014      0.0001      0.0003
        13         0.0000     -0.0003      0.0000      0.0000      0.0000
        14        -0.0198      0.0045     -0.0058      0.0004      0.0021
        15         0.0124      0.0123     -0.0070      0.0004      0.0017
        16        -0.0065     -0.0786     -0.0325      0.0073      0.0334
        17         0.0005      0.0035      0.0009      0.0000      0.0001
        18         0.0429      0.3087      0.0782      0.1033      0.4688
        19         0.0020      0.0217      0.0056      0.0005      0.0023
        20        -0.0152     -0.1239      0.0370      0.0170      0.0734
        21        -0.0912      0.0070     -0.0009      0.0084      0.0356
        22        -0.0006     -0.0001      0.0003      0.0000      0.0000
        23        -0.0004      0.0004     -0.0022      0.0000      0.0000
        24        -0.0021     -0.0005      0.0014      0.0000      0.0000
        25         0.0303      0.0040     -0.0099      0.0010      0.0041
        26         0.0264      0.0088     -0.0251      0.0014      0.0056
        27         0.0307      0.0083     -0.0007      0.0010      0.0040
        28         0.3398      0.0948      0.0664      0.1288      0.5118
        29         0.0235      0.0050      0.1965      0.0392      0.1537
        30        -0.0011      0.0000     -0.0165      0.0003      0.0011
        31         0.0121      0.0375     -0.0415      0.0033      0.0127
        32         0.0037      0.0061      0.0049      0.0001      0.0003
        33         0.0007     -0.0011      0.0066      0.0000      0.0002
        34         0.0061      0.0048      0.0121      0.0002      0.0008
        35        -0.0082      0.0245      0.0377      0.0021      0.0079
        36        -0.0089      0.0238      0.0357      0.0019      0.0073
        37        -0.0011      0.0016      0.0016      0.0000      0.0000
        38        -0.0029      0.0023     -0.0011      0.0000      0.0001
        39         0.0073      0.0019     -0.0195      0.0004      0.0016
        40         0.0013      0.0009     -0.0052      0.0000      0.0001
        41        -0.0186      0.0137     -0.0361      0.0018      0.0067
        42         0.0111     -0.0064     -0.0140      0.0004      0.0013
        43         0.0384     -0.0273     -0.3054      0.0955      0.3458
        44         0.0212     -0.0119     -0.5002      0.2508      0.9013
        45        -0.0334     -0.0152      0.0854      0.0086      0.0308
        46        -0.0913     -0.0825      0.0518      0.0178      0.0634
        47        -0.0069     -0.0170     -0.0908      0.0086      0.0304
        48         0.0879      0.0928      0.0223      0.0168      0.0596
        49        -0.0014     -0.0017     -0.0005      0.0000      0.0000
        50        -0.0034     -0.0161      0.0157      0.0005      0.0018
        51        -0.2115      0.0460      0.0325      0.0479      0.1662
        52         0.0518     -0.0344     -0.0095      0.0040      0.0137
        53        -0.1090     -0.0541     -0.1079      0.0265      0.0916
        54        -0.0245      0.0073     -0.0176      0.0010      0.0033
        55         0.0211     -0.0212     -0.0553      0.0040      0.0134
        56        -0.0182     -0.0044     -0.0247      0.0010      0.0032
        57         0.0183      0.0191      0.1285      0.0172      0.0579
        58        -0.0031      0.0830      0.0733      0.0123      0.0412
        59         0.0427     -0.0250     -0.0283      0.0032      0.0108
        60        -0.0669     -0.0122     -0.0006      0.0046      0.0153
 Ground to excited state transition magnetic dipole moments (Au):
       state          X           Y           Z
         1        -0.0096      0.0030      0.0011
         2         0.1723     -0.1370     -0.1366
         3        -0.0009      0.0006      0.0008
         4        -0.0359      0.0672      0.0719
         5        -0.0104      0.0579      0.0976
         6        -0.0012      0.0029      0.0564
         7        -0.0925     -0.1450     -0.3134
         8        -0.0001      0.0001     -0.0004
         9         0.0001      0.0101     -0.1505
        10        -0.0001     -0.0002      0.0065
        11        -0.0506      0.1080     -0.2069
        12        -0.0503      0.0043     -0.0299
        13         0.0003     -0.0004      0.0018
        14         0.0253      0.0099     -0.0202
        15        -0.0093      0.0600     -0.0401
        16         0.0181     -0.2427      0.9061
        17        -0.0016      0.0058     -0.0331
        18        -0.0747      0.6433     -2.8380
        19         0.0160      0.0192     -0.2020
        20        -0.0623      0.3225      2.7054
        21         0.5563     -0.1008      0.0362
        22        -0.0015      0.0043     -0.0128
        23         0.0078      0.0435     -0.0706
        24         0.0005      0.0183     -0.0038
        25         0.0378     -0.1004      0.0269
        26        -0.0089     -0.2139      0.0537
        27        -0.0089     -0.1816      0.0916
        28        -0.1053     -1.6171      1.0172
        29        -0.0730      0.6848      0.0571
        30         0.0053     -0.0717     -0.0055
        31         0.0003     -0.2010     -0.6004
        32        -0.0017      0.0485     -0.0626
        33        -0.0049      0.0002     -0.0181
        34        -0.0081      0.0989     -0.0581
        35         0.0816      1.1206     -0.0981
        36         0.0833      1.1163     -0.0997
        37         0.0070      0.0758     -0.0076
        38         0.0162      0.1530     -0.0103
        39        -0.0399     -0.3140      0.1346
        40        -0.0085     -0.0876      0.0643
        41         0.1426     -0.1138      0.5503
        42        -0.0621     -0.0974     -0.1969
        43        -0.0351     -1.1137     -0.3974
        44         0.3316     -1.8680      0.3163
        45         0.0032      0.9046      0.0105
        46        -0.4795      0.2234     -0.8806
        47         0.1328     -0.4269      0.1082
        48         0.3688     -0.0127      1.3336
        49        -0.0014      0.0096     -0.0065
        50         0.2069      1.1188      0.2588
        51         0.0723     -0.1231     -0.2103
        52         0.0470      0.1081     -0.2497
        53        -0.0449     -0.2744      0.0632
        54        -0.0460     -0.1166      0.2263
        55         0.0068     -0.2519      0.1888
        56        -0.1267     -0.6168     -0.0243
        57         0.0360      0.5561     -0.4666
        58         0.0881      0.4365      0.7588
        59        -0.0503     -0.2478      0.1653
        60         0.0522     -0.1038      0.0894
 Ground to excited state transition velocity quadrupole moments (Au):
       state          XX          YY          ZZ          XY          XZ          YZ
         1        -0.0262     -0.0080      0.0079      0.0010      0.0011     -0.0029
         2         1.2840      0.1519     -0.1847     -0.0251      0.0412      0.0873
         3        -0.0064     -0.0007      0.0010      0.0003     -0.0001     -0.0005
         4        -0.6147     -0.0363      0.0684      0.0170     -0.0281     -0.0327
         5        -0.0818      0.0046      0.0092     -0.0706     -0.0716     -0.0018
         6        -0.0227     -0.0146      0.0062      0.0880      0.0224     -0.0061
         7         1.0484     -0.0628      0.0554     -0.0042      0.0389      0.0979
         8        -0.0003      0.0001      0.0001      0.0002     -0.0008     -0.0002
         9         0.0025      0.0206     -0.0079     -0.1167     -0.0427     -0.0010
        10        -0.0008     -0.0008      0.0005      0.0030      0.0005      0.0000
        11        -0.1962      0.0970      0.0111     -0.8657     -0.3478      0.0098
        12        -0.0964     -0.1190      0.0739     -0.0237     -0.0007     -0.0176
        13         0.0006      0.0000     -0.0001      0.0035      0.0008     -0.0001
        14         0.4825      0.0385     -0.0472     -0.0492      0.0473      0.0311
        15        -0.2722      0.0062      0.0056     -0.1506      0.0165     -0.0032
        16         0.2553     -0.0960      0.0011      0.9882      0.2758     -0.0067
        17        -0.0130      0.0052      0.0001     -0.0461     -0.0133      0.0009
        18        -1.0320      0.4334     -0.0040     -4.0217     -1.1351      0.0886
        19        -0.0275      0.0175     -0.0006     -0.2818     -0.0806      0.0114
        20         0.1878     -0.0360      0.0152      1.1901     -0.3800     -0.0267
        21         1.8937     -0.4581      0.0621     -0.2257      0.0205      0.1133
        22        -0.0210     -0.0034      0.0050     -0.0010     -0.0003     -0.0024
        23        -0.0277     -0.0201      0.0104      0.0178      0.0542     -0.0038
        24        -0.0098      0.0013      0.0023     -0.0046     -0.0086     -0.0024
        25        -0.1496     -0.2635      0.0727     -0.0196      0.0552     -0.0180
        26         0.1878      0.0315     -0.0567      0.0276      0.1469      0.0482
        27         0.3736      0.0122     -0.0451      0.1131      0.0903      0.0394
        28         4.3374      0.0534     -0.4077      1.3423      0.8241      0.3945
        29         0.5881     -0.0840      0.1639      0.3361     -0.5278     -0.1123
        30        -0.0303      0.0076     -0.0151     -0.0225      0.0474      0.0113
        31        -0.4283      0.0275     -0.0119     -0.5500      0.1040      0.0297
        32        -0.0224     -0.0062      0.0104     -0.0569      0.0006      0.0003
        33        -0.0449      0.0032      0.0030     -0.0096     -0.0485     -0.0110
        34        -0.1074     -0.0202      0.0265     -0.0591     -0.0402     -0.0134
        35        -0.0095     -0.0677      0.0965     -0.2594      0.2160      0.0133
        36        -0.0262     -0.0655      0.0941     -0.2631      0.2178      0.0129
        37        -0.0037     -0.0045      0.0049     -0.0181      0.0152      0.0009
        38        -0.0220     -0.0096      0.0114     -0.0376      0.0584      0.0058
        39        -0.0177     -0.0878      0.0495      0.1627      0.0704      0.0202
        40         0.0002     -0.0321      0.0199      0.0631      0.0247      0.0073
        41        -0.0260     -0.0707      0.0535      0.1913      0.1626      0.0639
        42        -0.0051      0.0041     -0.0246     -0.0368      0.0757      0.0003
        43        -0.1341      0.0104     -0.2568     -0.0200      1.4582      0.2354
        44        -0.3454      0.1507     -0.4684      0.0414      2.0825      0.4249
        45         0.2609     -0.0190      0.0563      0.0540     -0.1115     -0.0538
        46        -1.2268      0.4107      0.0027      0.2484     -0.2665      0.1575
        47        -0.2616     -0.0461     -0.1062     -0.1321      0.2847      0.0611
        48         1.0209     -0.3270     -0.0409      0.2594      0.1928     -0.0429
        49        -0.0038      0.0013     -0.0007     -0.0007      0.0087      0.0012
        50         0.1892     -0.1323      0.0622      0.2292      0.3302     -0.0867
        51         3.2685      1.2553     -0.5864     -0.1946     -0.0440      0.2660
        52        -1.1022     -0.4570      0.1438     -0.4191     -0.1025     -0.1073
        53         0.9657      0.4829     -0.3171      0.3760      0.7008      0.2596
        54        -0.5825      0.1303      0.0489      0.2737     -0.0511      0.0751
        55        -0.3871     -0.1913      0.0502      0.2020      0.3031      0.0308
        56        -0.1850      0.0387     -0.0427     -0.1647     -0.1514      0.1161
        57         0.2987     -0.1117      0.0890     -0.4276     -0.6098     -0.1714
        58        -0.1341      0.1423      0.0919      0.4363     -0.2837     -0.1161
        59        -0.5655     -0.1303      0.0162      0.2273      0.1304     -0.0468
        60         0.7217      0.0434     -0.0564      0.2186      0.1803      0.0876
 <0|del|b> * <b|rxdel|0> + <0|del|b> * <b|delr+rdel|0>
 Rotatory Strengths (R) in cgs (10**-40 erg-esu-cm/Gauss)
       state          XX          YY          ZZ    R(velocity)    E-M Angle
         1        -0.0086     -0.1426     -0.0825     -0.0779       90.00
         2        -5.2498   -119.9508    -42.8807    -56.0271      134.10
         3        -0.0002     -0.0033     -0.0012     -0.0016       90.00
         4        -0.5279    -15.2872     -1.3879     -5.7343      110.60
         5         2.3095      2.9354     -0.4051      1.6132       51.88
         6        -0.0532     -0.0068     -0.4476     -0.1692       90.00
         7        -1.4880      0.3102    109.2023     36.0082       75.16
         8        -0.0002     -0.0003      0.0001     -0.0001       90.00
         9        -3.4888     -0.6263     -0.9010     -1.6720      119.95
        10        -0.0020     -0.0009     -0.0002     -0.0010       90.00
        11       -16.4630     56.4166    -41.5082     -0.5182       90.98
        12         0.2023      1.3665      0.6552      0.7413       20.68
        13         0.0002      0.0002     -0.0002      0.0001       90.00
        14         0.5948     -3.2742      0.9497     -0.5766      118.31
        15         4.7579     -2.3619      2.2010      1.5323       48.83
        16       -50.8463      6.3206     -6.7311    -17.0856       97.57
        17        -0.0086      0.0273     -0.0673     -0.0162       90.00
        18        30.6905    224.2466   -382.4056    -42.4895       91.62
        19        -1.2908      1.1944     -3.1631     -1.0865       98.57
        20       131.3544    131.9643     17.5902     93.6363       80.08
        21        -1.5398   -138.1948    -92.3690    -77.3679      173.33
        22        -0.0096     -0.0020     -0.0020     -0.0045       90.00
        23         0.2390      0.4104      0.0639      0.2378       90.00
        24        -0.0509      0.0111     -0.0222     -0.0206       90.00
        25        -1.4858      0.2946      3.1997      0.6695       82.35
        26       -11.0682      0.8136     -4.4411     -4.8986      114.81
        27        -5.0279      2.0042     -4.7134     -2.5790      106.46
        28      -157.6382    161.5096   -516.2140   -170.7809      100.20
        29       173.3203   -123.1219      3.5551     17.9178       84.58
        30         0.9654     -0.6202      0.0149      0.1200       90.00
        31        74.6483      5.0487     -8.2319     23.8217       61.39
        32        -0.6060     -0.0689      0.5999     -0.0250       90.00
        33        -0.4811     -0.1357      0.1162     -0.1668       90.00
        34        -1.5252     -0.2399      0.6360     -0.3764       99.70
        35        17.6041     10.6849     65.0219     31.1036       63.34
        36        17.0509     10.0322     62.8196     29.9675       63.09
        37         0.1080      0.0152      0.2697      0.1310       90.00
        38         0.5416     -0.1887      0.9108      0.4212       57.96
        39       -13.0232      0.8080     -1.8039     -4.6730      119.33
        40        -1.5112     -0.0151     -0.1554     -0.5606      136.18
        41       -59.0881    -32.5132     -1.5495    -31.0503      165.66
        42         8.4404      3.0085     -1.0680      3.4603       51.56
        43       379.6814    236.1041    -37.9851    192.6001       65.70
        44      -251.1549   -231.4970     -8.6524   -163.7681       97.69
        45       -18.7198     -3.8216    -26.3337    -16.2917       98.85
        46      -138.0686    -54.8098    116.5029    -25.4585       98.48
        47        26.8376    -43.5234      3.6129     -4.3576       94.68
        48        30.8063     98.7060     99.3332     76.2818       70.15
        49         0.0046      0.0063     -0.0506     -0.0132       90.00
        50        -9.2379      0.1004    -44.9288    -18.0221      123.41
        51       -30.9290   -132.5928     61.2570    -34.0883      119.96
        52        -1.6202     -8.7136     14.3543      1.3402       86.39
        53         9.7681     19.0183     18.6362     15.8075       73.84
        54       -16.9301      0.2220      3.1848     -4.5078      117.48
        55       -17.6952      2.7405     -2.8628     -5.9392      104.48
        56        12.0030     -5.8643     13.9215      6.6867       73.33
        57      -165.4068    -13.3780      4.9270    -57.9526      120.70
        58       262.2018     42.2299     21.4254    108.6191       20.00
        59        -2.9222     -4.2043      4.9073     -0.7397       92.10
        60         5.7606    -16.3030      2.5259     -2.6722      103.23
 1/2[<0|r|b>*<b|rxdel|0> + (<0|rxdel|b>*<b|r|0>)*]
 Rotatory Strengths (R) in cgs (10**-40 erg-esu-cm/Gauss)
       state          XX          YY          ZZ     R(length)
         1        -0.2138     -0.0077     -0.0061     -0.0759
         2      -155.4927     -8.9930      1.4592    -54.3421
         3        -0.0042     -0.0003     -0.0001     -0.0015
         4       -16.1224     -1.9888      1.7334     -5.4592
         5        -0.4832      0.7801      2.9277      1.0749
         6        -0.0342     -0.1193     -0.2780     -0.1438
         7       104.4261     -7.3360      4.9526     34.0142
         8         0.0000      0.0000     -0.0004     -0.0001
         9         0.0000      0.4920     -6.4186     -1.9755
        10         0.0000      0.0003     -0.0054     -0.0017
        11        -2.0680     37.1080    -33.3995      0.5468
        12         1.0847      0.0119      0.1750      0.4239
        13         0.0000      0.0006     -0.0005      0.0000
        14        -2.3075      0.1787      0.5698     -0.5196
        15        -0.5398      3.5035      1.4429      1.4689
        16        -0.5753     91.3712   -164.8225    -24.6755
        17        -0.0040      0.1004     -0.1383     -0.0140
        18       -15.6456    968.5377  -1052.0454    -33.0511
        19         0.1497      2.0058     -5.2986     -1.0477
        20         4.2021   -178.0159    415.6077     80.5980
        21      -223.6285     -3.1218     -0.1395    -75.6299
        22         0.0043     -0.0017     -0.0178     -0.0050
        23        -0.0175     -0.1186      0.6974      0.1871
        24        -0.0043     -0.0338     -0.0228     -0.0203
        25         5.1261     -1.6950     -1.1289      0.7674
        26        -0.9958     -7.6493     -5.7738     -4.8063
        27        -1.1630     -6.3623     -0.3059     -2.6104
        28      -152.7050   -656.1092    279.3379   -176.4921
        29        -7.2338     24.0063     46.8724     21.2150
        30        -0.0248      0.0676      0.3799      0.1409
        31         0.0176    -35.3833    105.6069     23.4138
        32        -0.0272      1.3460     -1.2079      0.0369
        33        -0.0128     -0.0007     -0.4928     -0.1688
        34        -0.1983      2.1292     -2.8381     -0.3024
        35        -2.9070    110.0514    -14.3891     30.9184
        36        -3.1985    105.9533    -13.8589     29.6320
        37        -0.0313      0.4603     -0.0482      0.1269
        38        -0.1966      1.2963      0.0513      0.3837
        39        -1.1943     -3.6352    -10.2704     -5.0333
        40        -0.0449     -0.4471     -1.2874     -0.5931
        41       -10.3479     -5.8466    -74.4240    -30.2061
        42        -2.6938      2.1984     11.2049      3.5698
        43        -5.2815    110.5459    472.4241    192.5628
        44        28.6950     86.4541   -608.8903   -164.5804
        45        -0.4243    -62.7732      3.4628    -19.9116
        46       167.5668    -71.1171   -170.9527    -24.8343
        47        -3.1375     27.0041    -37.8291     -4.6541
        48       123.6221     -4.4524     82.9856     67.3851
        49         0.0074     -0.0624      0.0127     -0.0141
        50        -2.6768    -64.5233     15.3908    -17.2698
        51       -57.1420    -21.6384    -25.5365    -34.7723
        52         9.1309    -14.2039      7.8362      0.9211
        53        18.3409     57.3455    -25.9113     16.5917
        54         4.1192     -3.3373    -14.6078     -4.6086
        55         0.5338     17.9291    -40.0291     -7.1887
        56         8.5138     13.6449      2.2441      8.1343
        57         2.3888     37.0857   -225.9742    -62.1665
        58        -1.6235    134.5059    205.6312    112.8378
        59        -7.5817     22.6849    -17.8963     -0.9310
        60       -12.4619      4.7803     -0.4546     -2.7121
  1/2[<0|del|b>*<b|r|0> + (<0|r|b>*<b|del|0>)*] (Au)
       state          X           Y           Z        Dip. S.   Osc.(frdel)
         1        -0.0001      0.0000      0.0000      0.0001      0.0000
         2        -0.1785     -0.0010      0.0000      0.1795      0.1197
         3         0.0000      0.0000      0.0000      0.0000      0.0000
         4        -0.0470     -0.0002     -0.0001      0.0473      0.0316
         5        -0.0005     -0.0001     -0.0003      0.0009      0.0006
         6        -0.0002     -0.0004      0.0000      0.0006      0.0004
         7        -0.3382     -0.0007     -0.0001      0.3391      0.2260
         8         0.0000      0.0000      0.0000      0.0000      0.0000
         9         0.0000     -0.0007     -0.0004      0.0011      0.0008
        10         0.0000      0.0000      0.0000      0.0000      0.0000
        11        -0.0004     -0.0313     -0.0076      0.0393      0.0262
        12        -0.0002      0.0000      0.0000      0.0002      0.0002
        13         0.0000      0.0000      0.0000      0.0000      0.0000
        14        -0.0025     -0.0001     -0.0002      0.0029      0.0019
        15        -0.0010     -0.0010     -0.0004      0.0024      0.0016
        16        -0.0003     -0.0418     -0.0084      0.0505      0.0337
        17         0.0000     -0.0001      0.0000      0.0001      0.0001
        18        -0.0127     -0.6572     -0.0410      0.7109      0.4740
        19         0.0000     -0.0032     -0.0002      0.0034      0.0023
        20        -0.0015     -0.0967     -0.0080      0.1062      0.0708
        21        -0.0518     -0.0003      0.0000      0.0522      0.0348
        22         0.0000      0.0000      0.0000      0.0000      0.0000
        23         0.0000      0.0000      0.0000      0.0000      0.0000
        24         0.0000      0.0000      0.0000      0.0000      0.0000
        25        -0.0058     -0.0001     -0.0006      0.0065      0.0043
        26        -0.0042     -0.0004     -0.0038      0.0085      0.0056
        27        -0.0057     -0.0004      0.0000      0.0061      0.0041
        28        -0.6965     -0.0544     -0.0258      0.7767      0.5178
        29        -0.0033     -0.0002     -0.2283      0.2318      0.1545
        30         0.0000      0.0000     -0.0016      0.0016      0.0011
        31        -0.0009     -0.0093     -0.0103      0.0206      0.0137
        32        -0.0001     -0.0002     -0.0001      0.0005      0.0003
        33         0.0000      0.0000     -0.0003      0.0003      0.0002
        34        -0.0002     -0.0001     -0.0008      0.0012      0.0008
        35        -0.0004     -0.0034     -0.0078      0.0116      0.0078
        36        -0.0005     -0.0032     -0.0070      0.0107      0.0071
        37         0.0000      0.0000      0.0000      0.0000      0.0000
        38         0.0000      0.0000      0.0000      0.0001      0.0001
        39        -0.0003      0.0000     -0.0021      0.0024      0.0016
        40         0.0000      0.0000     -0.0001      0.0002      0.0001
        41        -0.0019     -0.0010     -0.0069      0.0098      0.0065
        42        -0.0007     -0.0002     -0.0011      0.0020      0.0013
        43        -0.0082     -0.0038     -0.5134      0.5254      0.3503
        44        -0.0026     -0.0008     -1.3616      1.3650      0.9100
        45        -0.0063     -0.0015     -0.0398      0.0475      0.0317
        46        -0.0451     -0.0371     -0.0142      0.0965      0.0643
        47        -0.0002     -0.0015     -0.0449      0.0467      0.0311
        48        -0.0417     -0.0461     -0.0020      0.0897      0.0598
        49         0.0000      0.0000      0.0000      0.0000      0.0000
        50        -0.0001     -0.0013     -0.0013      0.0027      0.0018
        51        -0.2365     -0.0114     -0.0056      0.2536      0.1690
        52        -0.0142     -0.0064     -0.0004      0.0211      0.0140
[...]
  Beta virt. eigenvalues --    0.80578   0.80947   0.81162   0.81767   0.81879
  Beta virt. eigenvalues --    0.82425   0.82596   0.82664   0.82869   0.82959
  Beta virt. eigenvalues --    0.83467   0.83594   0.84003   0.84160   0.84683
  Beta virt. eigenvalues --    0.84760   0.85038   0.86292   0.86448   0.87043
  Beta virt. eigenvalues --    0.87326   0.87753   0.87897   0.88655   0.90506
  Beta virt. eigenvalues --    0.90571   0.92153   0.92555   0.93020   0.93130
  Beta virt. eigenvalues --    0.93614   0.94153   0.94690   0.94911   0.95489
  Beta virt. eigenvalues --    0.95832   0.96231   0.96853   0.96916   0.97393
  Beta virt. eigenvalues --    0.97571   0.97981   0.98139   0.98441   0.98680
  Beta virt. eigenvalues --    0.99103   0.99302   0.99646   0.99934   1.00168
  Beta virt. eigenvalues --    1.00347   1.00561   1.00852   1.01192   1.01274
  Beta virt. eigenvalues --    1.01433   1.01908   1.02089   1.02364   1.02652
  Beta virt. eigenvalues --    1.02920   1.03080   1.03338   1.03483   1.03662
  Beta virt. eigenvalues --    1.03820   1.04015   1.04231   1.04593   1.04957
  Beta virt. eigenvalues --    1.05169   1.05383   1.05821   1.06076   1.06343
  Beta virt. eigenvalues --    1.06460   1.06706   1.07079   1.07501   1.07717
  Beta virt. eigenvalues --    1.08095   1.08244   1.08375   1.08488   1.08775
  Beta virt. eigenvalues --    1.08997   1.09203   1.09264   1.09543   1.09729
  Beta virt. eigenvalues --    1.10102   1.10353   1.10551   1.11004   1.11196
  Beta virt. eigenvalues --    1.11499   1.11717   1.12043   1.12526   1.12661
  Beta virt. eigenvalues --    1.13009   1.13239   1.13342   1.13478   1.13760
  Beta virt. eigenvalues --    1.13807   1.14028   1.14310   1.14606   1.14884
  Beta virt. eigenvalues --    1.15137   1.15459   1.15737   1.16193   1.16266
  Beta virt. eigenvalues --    1.16367   1.16729   1.17251   1.17496   1.17562
  Beta virt. eigenvalues --    1.18610   1.19392   1.20143   1.20366   1.20765
  Beta virt. eigenvalues --    1.21146   1.21336   1.21727   1.22232   1.22472
  Beta virt. eigenvalues --    1.23650   1.23750   1.24686   1.24936   1.25316
  Beta virt. eigenvalues --    1.25722   1.26096   1.26601   1.27488   1.27990
  Beta virt. eigenvalues --    1.28708   1.29603   1.30260   1.30495   1.31089
  Beta virt. eigenvalues --    1.32169   1.33459   1.34772   1.35070   1.35718
  Beta virt. eigenvalues --    1.36028   1.36740   1.37553   1.37620   1.37907
  Beta virt. eigenvalues --    1.38778   1.39399   1.39870   1.40179   1.40889
  Beta virt. eigenvalues --    1.41146   1.41637   1.41991   1.42579   1.42919
  Beta virt. eigenvalues --    1.43873   1.44162   1.45343   1.45472   1.46125
  Beta virt. eigenvalues --    1.46731   1.47701   1.48406   1.49076   1.49136
  Beta virt. eigenvalues --    1.49771   1.50422   1.51031   1.51671   1.52351
  Beta virt. eigenvalues --    1.52705   1.53052   1.53776   1.54077   1.54410
  Beta virt. eigenvalues --    1.54788   1.55051   1.55484   1.55920   1.56231
  Beta virt. eigenvalues --    1.56439   1.56819   1.56868   1.57232   1.57509
  Beta virt. eigenvalues --    1.57622   1.57846   1.58032   1.58281   1.58541
  Beta virt. eigenvalues --    1.58716   1.59171   1.59278   1.59544   1.59807
  Beta virt. eigenvalues --    1.60089   1.60138   1.60786   1.61002   1.61426
  Beta virt. eigenvalues --    1.61797   1.61913   1.62060   1.62632   1.63366
  Beta virt. eigenvalues --    1.63663   1.64210   1.64625   1.64891   1.65083
  Beta virt. eigenvalues --    1.65127   1.65671   1.66015   1.66829   1.67118
  Beta virt. eigenvalues --    1.67737   1.68169   1.68293   1.68637   1.68794
  Beta virt. eigenvalues --    1.68981   1.69175   1.69346   1.69449   1.69704
  Beta virt. eigenvalues --    1.69763   1.69891   1.70629   1.70866   1.70960
  Beta virt. eigenvalues --    1.71345   1.71545   1.71671   1.72075   1.72251
  Beta virt. eigenvalues --    1.72518   1.73061   1.73123   1.73401   1.73413
  Beta virt. eigenvalues --    1.73670   1.73864   1.74095   1.74188   1.74432
  Beta virt. eigenvalues --    1.74626   1.74854   1.75021   1.75238   1.75554
  Beta virt. eigenvalues --    1.75879   1.76620   1.76782   1.77085   1.77122
  Beta virt. eigenvalues --    1.77332   1.77415   1.77622   1.77999   1.78501
  Beta virt. eigenvalues --    1.78577   1.78993   1.79185   1.79656   1.79747
  Beta virt. eigenvalues --    1.79841   1.80228   1.80907   1.81084   1.81403
  Beta virt. eigenvalues --    1.81600   1.81948   1.82457   1.82799   1.83305
  Beta virt. eigenvalues --    1.83536   1.83766   1.84614   1.84694   1.84787
  Beta virt. eigenvalues --    1.85278   1.85619   1.85853   1.86076   1.86281
  Beta virt. eigenvalues --    1.86643   1.86976   1.87451   1.87750   1.87916
  Beta virt. eigenvalues --    1.88064   1.88385   1.88666   1.88830   1.89301
  Beta virt. eigenvalues --    1.89493   1.90028   1.90066   1.90270   1.90406
  Beta virt. eigenvalues --    1.90900   1.91054   1.91582   1.91753   1.92039
  Beta virt. eigenvalues --    1.92319   1.92472   1.92858   1.92903   1.93267
  Beta virt. eigenvalues --    1.93326   1.93637   1.93741   1.93782   1.93967
  Beta virt. eigenvalues --    1.94061   1.94238   1.94375   1.94803   1.94984
  Beta virt. eigenvalues --    1.95263   1.95339   1.96069   1.96426   1.96586
  Beta virt. eigenvalues --    1.96996   1.97285   1.97600   1.97785   1.98099
  Beta virt. eigenvalues --    1.98408   1.98589   1.98803   1.99470   2.00207
  Beta virt. eigenvalues --    2.00483   2.00991   2.01276   2.01729   2.02459
  Beta virt. eigenvalues --    2.02785   2.03074   2.03687   2.04382   2.04718
  Beta virt. eigenvalues --    2.04890   2.05239   2.05585   2.05660   2.05901
  Beta virt. eigenvalues --    2.06247   2.06472   2.06678   2.06907   2.07054
  Beta virt. eigenvalues --    2.07617   2.07662   2.07919   2.08253   2.08311
  Beta virt. eigenvalues --    2.08431   2.08591   2.08897   2.09337   2.09557
  Beta virt. eigenvalues --    2.09751   2.10116   2.10647   2.10760   2.11053
  Beta virt. eigenvalues --    2.11529   2.11919   2.12691   2.13236   2.14818
  Beta virt. eigenvalues --    2.14860   2.15274   2.15801   2.15939   2.17214
  Beta virt. eigenvalues --    2.18490   2.18654   2.18915   2.20243   2.20890
  Beta virt. eigenvalues --    2.21537   2.22306   2.22991   2.24155   2.24999
  Beta virt. eigenvalues --    2.25698   2.26537   2.27120   2.27723   2.27879
  Beta virt. eigenvalues --    2.28415   2.28744   2.28975   2.29854   2.30054
  Beta virt. eigenvalues --    2.30703   2.30909   2.31725   2.32474   2.33105
  Beta virt. eigenvalues --    2.33596   2.34053   2.34741   2.35106   2.36358
  Beta virt. eigenvalues --    2.37618   2.38498   2.39979   2.40139   2.41631
  Beta virt. eigenvalues --    2.42247   2.42822   2.43992   2.45669   2.46393
  Beta virt. eigenvalues --    2.46596   2.46831   2.46903   2.47219   2.47747
  Beta virt. eigenvalues --    2.48301   2.48371   2.49230   2.49402   2.50808
  Beta virt. eigenvalues --    2.51622   2.51819   2.52256   2.52334   2.52441
  Beta virt. eigenvalues --    2.52556   2.53101   2.53439   2.53639   2.54068
  Beta virt. eigenvalues --    2.54388   2.54586   2.55387   2.55603   2.55772
  Beta virt. eigenvalues --    2.56647   2.57145   2.58159   2.58729   2.59995
  Beta virt. eigenvalues --    2.62235   2.64548   2.65291   2.66681   2.69297
  Beta virt. eigenvalues --    2.70100   2.70612   2.73610   2.74124   2.74293
  Beta virt. eigenvalues --    2.74667   2.75025   2.75243   2.76353   2.77324
  Beta virt. eigenvalues --    2.78013   2.78510   2.79226   2.79658   2.80425
  Beta virt. eigenvalues --    2.80901   2.81633   2.82213   2.82747   2.82960
  Beta virt. eigenvalues --    2.83412   2.84128   2.85230   2.85589   2.86172
  Beta virt. eigenvalues --    2.86880   2.87607   2.88126   2.88938   2.90247
  Beta virt. eigenvalues --    2.90675   2.92180   2.93211   2.93794   2.94455
  Beta virt. eigenvalues --    2.96250   2.97098   2.97656   2.98013   2.99302
  Beta virt. eigenvalues --    3.00802   3.01352   3.01997   3.04123   3.06605
  Beta virt. eigenvalues --    3.09128   3.09872   3.12636   3.17284   3.27571
  Beta virt. eigenvalues --    3.34704   3.46724   3.60649   3.61278   3.62327
  Beta virt. eigenvalues --    3.63064   3.64882   3.65497   3.66103   3.66976
  Beta virt. eigenvalues --    3.89393
          Condensed to atoms (all electrons):
          Atomic-Atomic Spin Densities.
 Mulliken charges and spin densities:
               1          2
     1  O   -0.247331   0.000062
     2  C   -0.104304  -0.002838
     3  C    0.058310   0.000742
     4  C    0.013982   0.000064
     5  C   -0.003161   0.000014
     6  C    0.007597  -0.000051
     7  C    0.003055   0.000054
     8  C   -0.037061  -0.000025
     9  C   -0.008287   0.000053
    10  C   -0.012432  -0.000024
    11  C    0.039095   0.001275
    12  C    0.014611  -0.000009
    13  C    0.001965   0.000032
    14  C    0.008125  -0.000049
    15  C   -0.000949   0.000091
    16  C   -0.007232  -0.000051
    17  C   -0.049132   0.000003
    18  C   -0.016212  -0.000001
    19  C   -0.001879   0.000000
    20  C   -0.016788   0.000000
    21  C   -0.003410   0.000000
    22  C    0.000829  -0.000002
    23  C   -0.038056   0.000006
    24  C    0.010165  -0.000004
    25  C   -0.003145   0.000002
    26  C   -0.014774  -0.000004
    27  C   -0.002643   0.000002
    28  C   -0.004930  -0.000004
    29  C   -0.024142   0.038583
    30  C   -0.028648  -0.016004
    31  C    0.005957   0.035509
    32  C   -0.016464  -0.009364
    33  C    0.008808   0.012536
    34  C    0.009448  -0.011611
    35  C   -0.006417   0.012891
    36  C    0.021848  -0.075410
    37  C   -0.097325   0.722123
    38  C    0.017166  -0.156099
    39  C   -0.041188   0.157828
    40  C   -0.001891  -0.087482
    41  C   -0.014481   0.162123
    42  C   -0.002155  -0.086706
    43  C   -0.019729   0.158357
    44  C    0.020208  -0.156990
    45  C   -0.024000   0.161562
    46  C    0.001688  -0.088470
    47  C   -0.015056   0.165735
    48  C   -0.001435  -0.089203
    49  C   -0.040084   0.160491
    50  C    0.004158   0.036746
    51  C   -0.013768  -0.009516
    52  C    0.009805   0.011337
    53  C    0.010413  -0.011060
    54  C    0.000317   0.011779
    55  C    0.000621  -0.016577
    56  H    0.182457  -0.000031
    57  H    0.013886  -0.000015
    58  H    0.018147   0.000002
    59  H    0.020132   0.000003
    60  H   -0.000863   0.000005
    61  H    0.009890  -0.000089
    62  H    0.020874   0.000004
    63  H    0.021408   0.000003
    64  H   -0.003454   0.000012
    65  H    0.018868   0.000000
    66  H    0.023805   0.000000
    67  H    0.022107   0.000000
    68  H    0.022895   0.000000
    69  H    0.004294   0.000001
    70  H   -0.016762  -0.000001
    71  H    0.021266   0.000000
    72  H    0.021355   0.000000
    73  H    0.021490   0.000000
    74  H   -0.000262   0.000000
    75  H    0.001668  -0.002612
    76  H    0.016011  -0.000468
    77  H    0.014633   0.000506
    78  H   -0.003398  -0.000348
    79  H    0.012380  -0.006818
    80  H    0.021959   0.003519
    81  H    0.020877  -0.006852
    82  H    0.019677   0.003385
    83  H    0.008748  -0.006553
    84  H    0.005578  -0.006511
    85  H    0.020987   0.003433
    86  H    0.020959  -0.007006
    87  H    0.022100   0.003561
    88  H    0.012312  -0.006972
    89  H    0.001931  -0.002368
    90  H    0.017769  -0.000417
    91  H    0.016021   0.000493
    92  H   -0.001406  -0.000311
 Sum of Mulliken charges =   0.00000   1.00000
 Mulliken charges and spin densities with hydrogens summed into heavy atoms:
               1          2
     1  O   -0.064874   0.000031
     2  C   -0.104304  -0.002838
     3  C    0.058310   0.000742
     4  C    0.027868   0.000049
     5  C    0.014986   0.000016
     6  C    0.027729  -0.000048
     7  C    0.002192   0.000060
     8  C   -0.037061  -0.000025
     9  C   -0.008287   0.000053
    10  C   -0.012432  -0.000024
    11  C    0.039095   0.001275
    12  C    0.024501  -0.000098
    13  C    0.022839   0.000036
    14  C    0.029533  -0.000046
    15  C   -0.004403   0.000103
    16  C   -0.007232  -0.000051
    17  C   -0.049132   0.000003
    18  C    0.002657  -0.000001
    19  C    0.021926   0.000000
    20  C    0.005318   0.000000
    21  C    0.019484   0.000000
    22  C    0.005123  -0.000001
    23  C   -0.038056   0.000006
    24  C   -0.006597  -0.000006
    25  C    0.018121   0.000002
    26  C    0.006581  -0.000003
    27  C    0.018847   0.000002
    28  C   -0.005192  -0.000004
    29  C   -0.024142   0.038583
    30  C   -0.028648  -0.016004
    31  C    0.005957   0.035509
    32  C   -0.014797  -0.011976
    33  C    0.024819   0.012068
    34  C    0.024081  -0.011106
    35  C   -0.009815   0.012542
    36  C    0.021848  -0.075410
    37  C   -0.097325   0.722123
    38  C    0.017166  -0.156099
    39  C   -0.028808   0.151010
    40  C    0.020068  -0.083963
    41  C    0.006396   0.155270
    42  C    0.017522  -0.083321
    43  C   -0.010982   0.151803
    44  C    0.020208  -0.156990
    45  C   -0.018422   0.155051
    46  C    0.022675  -0.085037
    47  C    0.005902   0.158730
    48  C    0.020665  -0.085642
    49  C   -0.027772   0.153518
    50  C    0.004158   0.036746
    51  C   -0.011836  -0.011884
    52  C    0.027574   0.010920
    53  C    0.026433  -0.010567
    54  C   -0.001089   0.011468
    55  C    0.000621  -0.016577
 Electronic spatial extent (au):  <R**2>=          38468.5252
 Charge=              0.0000 electrons
 Dipole moment (field-independent basis, Debye):
    X=              1.8413    Y=             -0.6957    Z=             -1.2879  Tot=              2.3522
 Quadrupole moment (field-independent basis, Debye-Ang):
   XX=           -265.1739   YY=           -286.5631   ZZ=           -303.2642
   XY=             -5.6324   XZ=             -5.9969   YZ=             -2.3438
 Traceless Quadrupole moment (field-independent basis, Debye-Ang):
   XX=             19.8265   YY=             -1.5627   ZZ=            -18.2638
   XY=             -5.6324   XZ=             -5.9969   YZ=             -2.3438
 Octapole moment (field-independent basis, Debye-Ang**2):
  XXX=             -9.9033  YYY=             20.5857  ZZZ=             21.5088  XYY=             28.2733
  XXY=            -35.6992  XXZ=            -71.7667  XZZ=             18.6025  YZZ=            -12.8567
  YYZ=             -0.0305  XYZ=            -30.1002
 Hexadecapole moment (field-independent basis, Debye-Ang**3):
 XXXX=         -36250.9557 YYYY=          -8207.7951 ZZZZ=          -4446.9425 XXXY=           -307.3209
 XXXZ=           -431.6819 YYYX=             22.3622 YYYZ=             49.1212 ZZZX=             32.7525
 ZZZY=            -84.9181 XXYY=          -7081.3393 XXZZ=          -7314.9414 YYZZ=          -2349.2266
 XXYZ=            130.8137 YYXZ=             14.3984 ZZXY=            -50.5199
 N-N= 6.978522863697D+03 E-N=-1.895739482666D+04  KE= 2.140163647357D+03
 1|1|UNPC-CHSHR-P01|SP|UwB97XD TD-FC|CC-pVDZ|C54H37O1(2)|IBS|04-Jul-202
 4|0||# td=(nstates=60) wb97xd/cc-pvdz scrf=(cpcm,solvent=n,n-DiMethylF
 ormamide) geom=AllCheck guess=read maxdisk=900GB integral(ultrafinegri
 d)||OS3_conf1||0,2|O,0,2.7322588335,-0.0508348619,0.5260876058|C,0,4.0
 668514986,0.065748961,0.0083196516|C,0,4.5656709484,1.4331802724,0.515
 3802795|C,0,4.4397684994,2.6078405108,-0.2302657639|C,0,4.8661595498,3
 .8269719829,0.2890200201|C,0,5.4329094392,3.8832823601,1.5632411849|C,
 0,5.512888711,2.7279345917,2.3322989691|C,0,5.0467454823,1.5072887512,
 1.8301425035|C,0,5.0142169541,0.2696303694,2.6550285812|C,0,5.40659108
 18,-0.9542198185,1.9036240205|C,0,4.9183891174,-1.0740188414,0.5894567
 101|C,0,5.1730153668,-2.2410674394,-0.133155773|C,0,5.9448558307,-3.26
 29828092,0.4141549051|C,0,6.4824845785,-3.1164296668,1.6918591888|C,0,
 6.2114698755,-1.969278495,2.4323561678|C,0,4.4940982852,0.2437621787,3
 .9049497902|C,0,4.3984411353,-1.0138261309,4.7121134176|C,0,5.35601956
 5,-1.3301618507,5.6823862754|C,0,5.2373842121,-2.4949531952,6.43989980
 07|C,0,4.1583465196,-3.3556244503,6.2379179223|C,0,3.1959532249,-3.042
 958404,5.277534022|C,0,3.3125837827,-1.8759185895,4.5240774389|C,0,3.8
 323256547,1.4300189098,4.53317703|C,0,2.7624794473,2.0592927057,3.8812
 86361|C,0,2.1095641059,3.1407565123,4.4671305699|C,0,2.5165202727,3.61
 24487885,5.7157089991|C,0,3.5723550237,2.9859154822,6.3776730631|C,0,4
 .2178365016,1.8956524169,5.7958275343|C,0,4.0594593525,0.0147468237,-1
 .5344363489|C,0,2.9366117608,-0.3657743843,-2.311651365|C,0,2.95715367
 27,-0.1496810596,-3.7396217069|C,0,1.8097269421,-0.5071208699,-4.52647
 55226|C,0,0.7174117231,-1.0991266123,-3.9677900108|C,0,0.7152044221,-1
 .3837628931,-2.5734296345|C,0,1.7697531903,-1.0303660918,-1.782003126|
 C,0,4.0999368019,0.3667209897,-4.3732880687|C,0,4.0772601022,0.6600332
 104,-5.8343483925|C,0,3.3749950509,1.8573589504,-6.268192325|C,0,2.786
 1553277,1.9700778688,-7.5493061916|C,0,2.0908470483,3.1152114201,-7.92
 06938871|C,0,1.9568319611,4.1836898,-7.0307658121|C,0,2.5163357048,4.0
 859286108,-5.7543328948|C,0,3.2064633267,2.9409972434,-5.3747480132|C,
 0,4.7450502452,-0.2640579857,-6.7351559483|C,0,4.9502664694,-1.6081685
 382,-6.3447737048|C,0,5.608701403,-2.506449853,-7.1757446564|C,0,6.099
 4224504,-2.092683094,-8.4167185937|C,0,5.9286789416,-0.7635182482,-8.8
 118296174|C,0,5.264861322,0.1382363748,-7.9881219653|C,0,5.2697439994,
 0.5833618721,-3.622605724|C,0,6.470570485,1.0411354527,-4.2625581661|C
 ,0,7.6231375559,1.2327998173,-3.5603050848|C,0,7.6421244382,0.97603351
 94,-2.1610082973|C,0,6.5087385974,0.5806499473,-1.5111185936|C,0,5.259
 6501391,0.3828077698,-2.2006224314|H,0,2.8159930511,-0.2001963962,1.47
 67416219|H,0,4.0197447314,2.5702189526,-1.2360627644|H,0,4.7708108007,
 4.7334998384,-0.3110085725|H,0,5.8002866276,4.8301508152,1.9621987694|
 H,0,5.9262221408,2.7679056444,3.3409697456|H,0,4.7772832507,-2.3460852
 592,-1.1443086965|H,0,6.1400222061,-4.1661590679,-0.1661560992|H,0,7.1
 15050731,-3.8977245134,2.1163614383|H,0,6.632771503,-1.8579084087,3.43
 02197173|H,0,6.2145498171,-0.6712810604,5.8296870616|H,0,5.9964601014,
 -2.7336151258,7.1870364423|H,0,4.0678098518,-4.269241104,6.8280241941|
 H,0,2.348562098,-3.7109832099,5.112966592|H,0,2.5560122661,-1.63410442
 58,3.7743120949|H,0,2.4469276808,1.7047162166,2.8979838215|H,0,1.27844
 50887,3.617344302,3.9442412235|H,0,2.0086000676,4.4629008804,6.1738695
 432|H,0,3.8958056389,3.3454867326,7.3561947175|H,0,5.0382917254,1.4103
 494485,6.3270302615|H,0,1.8402722872,-0.3200770353,-5.6001819762|H,0,-
 0.1377393029,-1.3772044762,-4.5858955395|H,0,-0.136101978,-1.903996868
 5,-2.1304147627|H,0,1.7490489978,-1.2740082476,-0.7274178189|H,0,2.845
 2864805,1.1328174287,-8.2457352927|H,0,1.6372443427,3.1699408478,-8.91
 21154397|H,0,1.4117379316,5.0816617312,-7.3263678535|H,0,2.4134511012,
 4.9114797435,-5.0475933874|H,0,3.6401742865,2.8811175989,-4.3749593365
 |H,0,4.5713830187,-1.9466258848,-5.3788807689|H,0,5.7411648432,-3.5407
 385133,-6.8527828729|H,0,6.6198648554,-2.7979916425,-9.0667129607|H,0,
 6.3287620525,-0.4224811154,-9.7685468958|H,0,5.1773751163,1.1797851155
 ,-8.2993969018|H,0,6.4492638004,1.2264353194,-5.3363634825|H,0,8.52830
 64381,1.572352353,-4.0660425577|H,0,8.5700734537,1.0976792512,-1.59988
 2949|H,0,6.5733069656,0.3936498537,-0.4428947077||Version=EM64W-G09Rev
 D.01|State=2-A|HF=-2154.6841268|S2=0.79609|S2-1=0.|S2A=0.751922|RMSD=3
 .050e-009|PG=C01 [X(C54H37O1)]||@


 THE DIFFICULTY IN SCIENCE IS OFTEN NOT SO MUCH HOW
 TO MAKE A DISCOVERY BUT RATHER TO KNOW ONE HAS MADE IT.

                                                   -- J. D. BERNAL
 Job cpu time:       1 days  0 hours 32 minutes  6.0 seconds.
 File lengths (MBytes):  RWF=  16413 Int=      0 D2E=      0 Chk=   2109 Scr=      1
 Normal termination of Gaussian 09 at Thu Jul 04 19:52:24 2024.
