 Entering Link 1 = C:\G09W\l1.exe PID=     19652.
  
 Copyright (c) 1988,1990,1992,1993,1995,1998,2003,2009,2013,
            Gaussian, Inc.  All Rights Reserved.
  
 This is part of the Gaussian(R) 09 program.  It is based on
 the Gaussian(R) 03 system (copyright 2003, Gaussian, Inc.),
 the Gaussian(R) 98 system (copyright 1998, Gaussian, Inc.),
 the Gaussian(R) 94 system (copyright 1995, Gaussian, Inc.),
 the Gaussian 92(TM) system (copyright 1992, Gaussian, Inc.),
 the Gaussian 90(TM) system (copyright 1990, Gaussian, Inc.),
 the Gaussian 88(TM) system (copyright 1988, Gaussian, Inc.),
 the Gaussian 86(TM) system (copyright 1986, Carnegie Mellon
 University), and the Gaussian 82(TM) system (copyright 1983,
 Carnegie Mellon University). Gaussian is a federally registered
 trademark of Gaussian, Inc.
  
 This software contains proprietary and confidential information,
 including trade secrets, belonging to Gaussian, Inc.
  
 This software is provided under written license and may be
 used, copied, transmitted, or stored only in accord with that
 written license.
  
 The following legend is applicable only to US Government
 contracts under FAR:
  
                    RESTRICTED RIGHTS LEGEND
  
 Use, reproduction and disclosure by the US Government is
 subject to restrictions as set forth in subparagraphs (a)
 and (c) of the Commercial Computer Software - Restricted
 Rights clause in FAR 52.227-19.
  
 Gaussian, Inc.
 340 Quinnipiac St., Bldg. 40, Wallingford CT 06492
  
  
 ---------------------------------------------------------------
 Warning -- This program may not be used in any manner that
 competes with the business of Gaussian, Inc. or will provide
 assistance to any competitor of Gaussian, Inc.  The licensee
 of this program is prohibited from giving any competitor of
 Gaussian, Inc. access to this program.  By using this program,
 the user acknowledges that Gaussian, Inc. is engaged in the
 business of creating and licensing software in the field of
 computational chemistry and represents and warrants to the
 licensee that it is not a competitor of Gaussian, Inc. and that
 it will not use this program in any manner prohibited above.
 ---------------------------------------------------------------
  

 Cite this work as:
 Gaussian 09, Revision D.01,
 M. J. Frisch, G. W. Trucks, H. B. Schlegel, G. E. Scuseria, 
 M. A. Robb, J. R. Cheeseman, G. Scalmani, V. Barone, B. Mennucci, 
 G. A. Petersson, H. Nakatsuji, M. Caricato, X. Li, H. P. Hratchian, 
 A. F. Izmaylov, J. Bloino, G. Zheng, J. L. Sonnenberg, M. Hada, 
 M. Ehara, K. Toyota, R. Fukuda, J. Hasegawa, M. Ishida, T. Nakajima, 
 Y. Honda, O. Kitao, H. Nakai, T. Vreven, J. A. Montgomery, Jr., 
 J. E. Peralta, F. Ogliaro, M. Bearpark, J. J. Heyd, E. Brothers, 
 K. N. Kudin, V. N. Staroverov, T. Keith, R. Kobayashi, J. Normand, 
 K. Raghavachari, A. Rendell, J. C. Burant, S. S. Iyengar, J. Tomasi, 
 M. Cossi, N. Rega, J. M. Millam, M. Klene, J. E. Knox, J. B. Cross, 
 V. Bakken, C. Adamo, J. Jaramillo, R. Gomperts, R. E. Stratmann, 
 O. Yazyev, A. J. Austin, R. Cammi, C. Pomelli, J. W. Ochterski, 
 R. L. Martin, K. Morokuma, V. G. Zakrzewski, G. A. Voth, 
 P. Salvador, J. J. Dannenberg, S. Dapprich, A. D. Daniels, 
 O. Farkas, J. B. Foresman, J. V. Ortiz, J. Cioslowski, 
 and D. J. Fox, Gaussian, Inc., Wallingford CT, 2013.
 
 ******************************************
 Gaussian 09:  EM64W-G09RevD.01 13-Apr-2013
                11-Jun-2024 
 ******************************************
 %nprocshared=15
 Will use up to   15 processors via shared memory.
 %mem=50GB
 %chk=D:\Yaroslav\pink-mystery\OS6\conf1_singlet\OS6_conf1_1106kjm_opt.chk
 ----------------------------------------------------------------------
 # td=(nstates=60) wb97xd/cc-pvdz scrf=(cpcm,solvent=n,n-DiMethylFormam
 ide) geom=AllCheck guess=read maxdisk=900GB integral(ultrafinegrid)
 ----------------------------------------------------------------------
 1/29=7,38=1/1;
 2/12=2,40=1/2;
 3/5=16,11=9,14=-4,16=1,25=1,30=1,70=2101,72=148,74=-58,75=-5,116=-2/1,2,8,3;
 4/5=1/1;
 5/5=2,38=6,53=148/2;
 8/6=1,10=1,108=60/1;
 9/41=60,42=1,70=2/14;
 6/7=2,8=2,9=2,10=2/1;
 99/5=1,9=1/99;
 Structure from the checkpoint file:  "D:\Yaroslav\pink-mystery\OS6\conf1_singlet\OS6_conf1_1106kjm_opt.chk"
 ---------
 OS6_conf1
 ---------
 Charge =  0 Multiplicity = 1
 Redundant internal coordinates found in file.
 O,0,2.0327795157,0.5688322013,0.2033274036
 C,0,3.2192096045,-0.2065729484,-0.0509190811
 C,0,3.60666862,-0.1375875217,-1.5682708267
 C,0,2.9890448143,-1.3136341037,-2.3522147839
 C,0,3.7115321647,-2.0740334279,-3.2733847894
 C,0,3.0900847703,-3.0955928349,-3.9954696989
 C,0,1.7378785389,-3.3683708962,-3.8068358921
 C,0,1.0061840442,-2.6079024022,-2.8922640814
 C,0,1.6258357725,-1.5887367899,-2.1761619471
 O,0,3.0304671617,1.0372371311,-2.1270576315
 C,0,5.1174175328,-0.0097028007,-1.7524359501
 C,0,5.5977324299,0.5764030409,-2.9310278921
 C,0,6.96516709,0.7168410261,-3.1510370731
 C,0,7.8793034782,0.2779738995,-2.1917715914
 C,0,7.4109327213,-0.2954659401,-1.0124575214
 C,0,6.0393723527,-0.4363649694,-0.7932485575
 C,0,3.2513351609,-1.5247514234,0.69255137
 C,0,2.7512632821,-1.5547901976,2.0080771703
 C,0,2.6362765444,-2.7572067747,2.7090433597
 C,0,3.0708796902,-3.9470063631,2.1363523649
 C,0,3.6404960446,-3.9174180341,0.8653506409
 C,0,3.7245565819,-2.7233799134,0.1503547658
 C,0,2.4677189324,-0.2907680188,2.7402999669
 O,0,1.7244212013,-0.235551067,3.6984682916
 H,0,4.353549552,0.6064933878,2.5604780897
 C,0,3.313707285,0.8908436092,2.2898520751
 C,0,3.2860334003,1.0320452001,0.7771473576
 C,0,3.837639364,2.3300385513,0.2881712436
 C,0,3.8056205194,3.4085043136,1.0888859816
 C,0,3.2559099627,3.3514076096,2.444383055
 C,0,2.9941577364,2.1674954852,3.0123934448
 H,0,4.775387274,-1.8874063995,-3.4230388652
 H,0,3.6739097266,-3.6820763881,-4.7072494021
 H,0,1.2538970212,-4.1698571223,-4.3675901913
 H,0,-0.0542297999,-2.8121578731,-2.7335443497
 H,0,1.0404305497,-1.0106374429,-1.4579166525
 H,0,2.2025601896,1.1838404682,-1.6413940703
 H,0,4.8868624367,0.9270072706,-3.6793388784
 H,0,7.3190851167,1.1747034968,-4.07654606
 H,0,8.9516199666,0.3889272645,-2.3618758285
 H,0,8.1136041404,-0.6327584587,-0.2486069004
 H,0,5.7054047536,-0.8780494153,0.145652144
 H,0,2.2321900717,-2.7318700979,3.7218169639
 H,0,2.9892096537,-4.8858682402,2.6853817276
 H,0,4.0169988915,-4.8350803042,0.4111207816
 H,0,4.1593826642,-2.7492465802,-0.8448251675
 H,0,4.2069461467,2.3947519941,-0.7313798438
 H,0,4.1797894764,4.3647589824,0.7172185704
 H,0,3.0736000694,4.2839632761,2.9807695115
 H,0,2.587075782,2.082176541,4.0202672477
 Recover connectivity data from disk.
                          Input orientation:                          
 ---------------------------------------------------------------------
 Center     Atomic      Atomic             Coordinates (Angstroms)
 Number     Number       Type             X           Y           Z
 ---------------------------------------------------------------------
      1          8           0        2.032780    0.568832    0.203327
      2          6           0        3.219210   -0.206573   -0.050919
      3          6           0        3.606669   -0.137588   -1.568271
      4          6           0        2.989045   -1.313634   -2.352215
      5          6           0        3.711532   -2.074033   -3.273385
      6          6           0        3.090085   -3.095593   -3.995470
      7          6           0        1.737879   -3.368371   -3.806836
      8          6           0        1.006184   -2.607902   -2.892264
      9          6           0        1.625836   -1.588737   -2.176162
     10          8           0        3.030467    1.037237   -2.127058
     11          6           0        5.117418   -0.009703   -1.752436
     12          6           0        5.597732    0.576403   -2.931028
     13          6           0        6.965167    0.716841   -3.151037
     14          6           0        7.879303    0.277974   -2.191772
     15          6           0        7.410933   -0.295466   -1.012458
     16          6           0        6.039372   -0.436365   -0.793249
     17          6           0        3.251335   -1.524751    0.692551
     18          6           0        2.751263   -1.554790    2.008077
     19          6           0        2.636277   -2.757207    2.709043
     20          6           0        3.070880   -3.947006    2.136352
     21          6           0        3.640496   -3.917418    0.865351
     22          6           0        3.724557   -2.723380    0.150355
     23          6           0        2.467719   -0.290768    2.740300
     24          8           0        1.724421   -0.235551    3.698468
     25          1           0        4.353550    0.606493    2.560478
     26          6           0        3.313707    0.890844    2.289852
     27          6           0        3.286033    1.032045    0.777147
     28          6           0        3.837639    2.330039    0.288171
     29          6           0        3.805621    3.408504    1.088886
     30          6           0        3.255910    3.351408    2.444383
     31          6           0        2.994158    2.167495    3.012393
     32          1           0        4.775387   -1.887406   -3.423039
     33          1           0        3.673910   -3.682076   -4.707249
     34          1           0        1.253897   -4.169857   -4.367590
     35          1           0       -0.054230   -2.812158   -2.733544
     36          1           0        1.040431   -1.010637   -1.457917
     37          1           0        2.202560    1.183840   -1.641394
     38          1           0        4.886862    0.927007   -3.679339
     39          1           0        7.319085    1.174703   -4.076546
     40          1           0        8.951620    0.388927   -2.361876
     41          1           0        8.113604   -0.632758   -0.248607
     42          1           0        5.705405   -0.878049    0.145652
     43          1           0        2.232190   -2.731870    3.721817
     44          1           0        2.989210   -4.885868    2.685382
     45          1           0        4.016999   -4.835080    0.411121
     46          1           0        4.159383   -2.749247   -0.844825
     47          1           0        4.206946    2.394752   -0.731380
     48          1           0        4.179789    4.364759    0.717219
     49          1           0        3.073600    4.283963    2.980770
     50          1           0        2.587076    2.082177    4.020267
 ---------------------------------------------------------------------
                    Distance matrix (angstroms):
                    1          2          3          4          5
     1  O    0.000000
     2  C    1.439969   0.000000
     3  C    2.472795   1.567559   0.000000
     4  C    3.314954   2.564083   1.542437   0.000000
     5  C    4.678726   3.756870   2.582292   1.395976   0.000000
     6  C    5.672372   4.891072   3.861081   2.426082   1.396849
     7  C    5.627606   5.128179   4.352185   2.811278   2.419750
     8  C    4.552826   4.328638   3.823341   2.428687   2.783734
     9  C    3.237696   2.994307   2.529637   1.401790   2.406146
    10  O    2.577883   2.427558   1.422837   2.361992   3.384955
    11  C    3.697932   2.556777   1.527296   2.567088   2.924254
    12  C    4.746907   3.816471   2.516192   3.272998   3.271051
    13  C    5.966751   4.949305   3.809817   4.535471   4.288367
    14  C    6.324788   5.151166   4.337840   5.145249   4.906337
    15  C    5.581189   4.301511   3.847893   4.731248   4.686220
    16  C    4.249279   2.925265   2.570598   3.536167   3.775165
    17  C    2.471297   1.513729   2.676154   3.063326   4.030154
    18  C    2.878040   2.505220   3.940869   4.373425   5.393104
    19  C    4.207773   3.803017   5.108765   5.274911   6.116563
    20  C    5.020661   4.335551   5.340690   5.204669   5.760531
    21  C    4.811389   3.845439   4.495640   4.190084   4.531252
    22  C    3.701834   2.574918   3.107072   2.964998   3.484797
    23  C    2.713727   2.891839   4.459199   5.220320   6.394647
    24  O    3.599740   4.036476   5.593835   6.274735   7.478995
    25  H    3.308104   2.960946   4.261227   5.448240   6.452237
    26  C    2.469424   2.586979   4.003575   5.149166   6.316515
    27  C    1.454125   1.491420   2.640423   3.922158   5.122068
    28  C    2.523205   2.632838   3.096595   4.579094   5.665372
    29  C    3.462790   3.835599   4.435632   5.899709   7.006888
    30  C    3.776388   4.345930   5.328931   6.696356   7.895307
    31  C    3.372065   3.882104   5.164403   6.395101   7.616837
    32  H    5.167740   4.076528   2.804984   2.160300   1.090419
    33  H    6.699052   5.828146   4.735093   3.409508   2.154805
    34  H    6.629866   6.180916   5.443429   3.902626   3.410239
    35  H    4.940842   4.970006   4.681171   3.413577   3.875206
    36  H    2.497842   2.715371   2.712927   2.165335   3.400223
    37  H    1.951937   2.344448   1.929518   2.713154   3.943873
    38  H    4.832099   4.151084   2.688655   3.222335   3.248453
    39  H    6.828574   5.909533   4.668575   5.283407   4.920752
    40  H    7.381259   6.209321   5.429137   6.200896   5.861360
    41  H    6.214861   4.916891   4.722200   5.581207   5.532160
    42  H    3.947780   2.582767   2.809005   3.715869   4.134697
    43  H    4.828475   4.645952   6.050167   6.283159   7.180115
    44  H    6.068699   5.425500   6.404763   6.175616   6.628353
    45  H    5.760432   4.719431   5.113981   4.592744   4.614355
    46  H    4.078077   2.824783   2.765796   2.388074   2.560153
    47  H    2.989090   2.864532   2.733764   4.226407   5.165004
    48  H    4.391218   4.733902   5.081639   6.563798   7.589613
    49  H    4.753913   5.420079   6.366164   7.731815   8.941226
    50  H    4.143246   4.713017   6.099072   7.231987   8.469702
                    6          7          8          9         10
     6  C    0.000000
     7  C    1.392283   0.000000
     8  C    2.407810   1.396471   0.000000
     9  C    2.779302   2.416350   1.391211   0.000000
    10  O    4.535945   4.888949   4.239140   2.978446   0.000000
    11  C    4.320185   5.188689   4.995207   3.855390   2.364696
    12  C    4.572186   5.588090   5.587810   4.586242   2.729393
    13  C    5.501271   6.666601   6.828643   5.896993   4.078364
    14  C    6.129510   7.322661   7.487239   6.526156   4.908348
    15  C    5.950529   7.030991   7.064123   6.041035   4.712421
    16  C    5.101373   6.015082   5.869789   4.766520   3.606114
    17  C    4.946826   5.092541   4.366328   3.297857   3.816119
    18  C    6.207370   6.174888   5.307324   4.333082   4.888343
    19  C    6.728368   6.605855   5.835592   5.123626   6.159632
    20  C    6.190680   6.118268   5.598495   5.123218   6.559038
    21  C    4.960436   5.074518   4.772222   4.328096   5.820245
    22  C    4.210577   4.474624   4.081717   3.332375   4.450911
    23  C    7.322908   7.271127   6.263463   5.154133   5.076559
    24  O    8.321151   8.132917   7.041425   6.029271   6.104302
    25  H    7.634280   7.948834   7.160279   5.890265   4.889691
    26  C    7.446271   7.602220   6.664849   5.379824   4.428402
    27  C    6.312976   6.540134   5.649028   4.283315   2.915433
    28  C    6.953121   7.324613   6.520396   5.130479   2.855905
    29  C    8.286492   8.612182   7.738446   6.354874   4.070143
    30  C    9.113891   9.302558   8.309900   6.957845   5.128770
    31  C    8.764670   8.872764   7.849933   6.550015   5.262391
    32  H    2.151194   3.401032   3.873981   3.400526   3.643879
    33  H    1.091533   2.158095   3.400703   3.870799   5.416948
    34  H    2.159653   1.091359   2.162788   3.406300   5.940540
    35  H    3.399927   2.161708   1.091508   2.151756   4.970012
    36  H    3.871343   3.400406   2.147040   1.092142   2.932880
    37  H    4.964164   5.062380   4.168130   2.881974   0.970975
    38  H    4.416974   5.327535   5.307988   4.384382   2.422381
    39  H    6.010528   7.201537   7.454083   6.607658   4.712923
    40  H    7.011997   8.260948   8.508364   7.590307   5.961166
    41  H    6.733519   7.797079   7.836169   6.835240   5.670603
    42  H    5.376457   6.129040   5.856962   4.747503   3.998603
    43  H    7.773338   7.571664   6.727892   6.038259   7.003767
    44  H    6.917300   6.783621   6.342843   6.030296   7.631805
    45  H    4.827321   5.013660   4.993764   4.790662   6.472998
    46  H    3.345133   3.875630   3.762266   3.088382   4.154038
    47  H    6.484254   6.983431   6.319877   4.961624   2.274833
    48  H    8.891217   9.286081   8.468657   7.094959   4.525843
    49  H   10.155099  10.315714   9.287871   7.948495   6.052519
    50  H    9.555854   9.575654   8.501714   7.266039   6.251248
                   11         12         13         14         15
    11  C    0.000000
    12  C    1.401179   0.000000
    13  C    2.428606   1.392122   0.000000
    14  C    2.811368   2.416842   1.395865   0.000000
    15  C    2.426817   2.780065   2.407695   1.392475   0.000000
    16  C    1.397169   2.406418   2.783190   2.418986   1.396096
    17  C    3.428644   4.801120   5.795727   5.743451   4.660520
    18  C    4.703981   6.085978   7.038022   6.877103   5.694036
    19  C    5.797382   7.189825   8.071483   7.792281   6.535065
    20  C    5.900284   7.247383   8.054405   7.726840   6.487281
    21  C    4.929943   6.199814   6.975756   6.701850   5.555258
    22  C    3.595096   4.887972   5.765055   5.635211   4.564676
    23  C    5.223464   6.535513   7.479984   7.343980   6.206333
    24  O    6.424624   7.720883   8.676877   8.534706   7.384634
    25  H    4.423168   5.630767   6.281252   5.926444   4.788214
    26  C    4.517128   5.707296   6.554900   6.426914   5.394426
    27  C    3.292112   4.393418   5.391290   5.520981   4.688258
    28  C    3.358020   4.066498   4.920568   5.166830   4.620967
    29  C    4.634443   5.233753   5.933358   6.095722   5.579724
    30  C    5.689953   6.486896   7.211675   7.232959   6.520249
    31  C    5.652612   6.680901   7.474034   7.383649   6.463243
    32  H    2.536468   2.643612   3.413389   3.979848   3.910406
    33  H    4.929601   4.999070   5.710048   6.300394   6.251876
    34  H    6.250816   6.592390   7.614357   8.271239   8.011049
    35  H    5.963410   6.592877   7.867660   8.531318   8.063779
    36  H    4.208377   5.045568   6.399480   6.997803   6.425979
    37  H    3.151709   3.682300   5.017921   5.774853   5.450785
    38  H    2.154887   1.090059   2.154675   3.404233   3.870094
    39  H    3.413451   2.152494   1.091542   2.161098   3.399775
    40  H    3.902747   3.406999   2.162475   1.091379   2.159408
    41  H    3.409814   3.871313   3.400651   2.158754   1.091321
    42  H    2.168523   3.404847   3.872833   3.394963   2.142300
    43  H    6.760339   8.156708   9.029441   8.713184   7.427570
    44  H    6.928238   8.257412   9.014564   8.623509   7.368680
    45  H    5.401497   6.553841   7.225268   6.916341   5.844096
    46  H    3.040837   4.181033   5.020439   4.981580   4.076974
    47  H    2.766391   3.174765   4.034589   4.483269   4.193067
    48  H    5.110211   5.447192   6.002419   6.233012   5.928724
    49  H    6.709396   7.420687   8.091212   8.117753   7.465219
    50  H    6.640986   7.723465   8.512311   8.357766   7.365534
                   16         17         18         19         20
    16  C    0.000000
    17  C    3.341457   0.000000
    18  C    4.462058   1.407687   0.000000
    19  C    5.406794   2.442024   1.396560   0.000000
    20  C    5.451524   2.825676   2.416880   1.390136   0.000000
    21  C    4.541287   2.430259   2.771023   2.398698   1.393120
    22  C    3.388096   1.398079   2.400840   2.780717   2.422549
    23  C    5.026318   2.515958   1.488052   2.472389   3.754548
    24  O    6.231745   3.609576   2.377440   2.858179   4.245946
    25  H    3.895771   3.040762   2.746564   3.779627   4.749683
    26  C    4.323915   2.896612   2.525246   3.734020   4.846372
    27  C    3.493315   2.558431   2.914255   4.302655   5.165722
    28  C    3.697308   3.920036   4.385223   5.760552   6.588246
    29  C    4.828571   4.980093   5.156634   6.481379   7.465961
    30  C    5.707639   5.181299   4.951344   6.145662   7.307254
    31  C    5.525969   4.368123   3.863038   4.946998   6.177416
    32  H    3.258677   4.403673   5.805578   6.552464   6.168803
    33  H    5.607982   5.830135   7.104381   7.545427   6.875225
    34  H    7.043838   6.049081   7.051937   7.347469   6.756653
    35  H    6.822106   4.931765   5.651083   6.071541   5.896616
    36  H    5.075529   3.126807   3.903353   4.791741   5.065941
    37  H    4.250358   3.726084   4.595630   5.886108   6.430469
    38  H    3.393609   5.272523   6.562530   7.710382   7.802312
    39  H    3.874693   6.824803   8.083178   9.134158   9.103805
    40  H    3.409235   6.744252   7.830642   8.688840   8.580063
    41  H    2.153519   5.032205   5.890455   6.577393   6.488555
    42  H    1.090025   2.596109   3.557184   4.418343   4.508005
    43  H    6.336387   3.416466   2.142862   1.090705   2.166484
    44  H    6.418913   3.916272   3.407556   2.157851   1.090672
    45  H    4.988907   3.409358   3.861691   3.391814   2.158759
    46  H    2.981014   2.165055   3.398320   3.866510   3.392180
    47  H    3.372957   4.278233   5.022203   6.391103   7.052123
    48  H    5.365664   5.962296   6.224794   7.554614   8.504650
    49  H    6.732051   6.245694   5.927991   7.059969   8.274171
    50  H    6.436718   4.952258   4.159735   5.014116   6.335160
                   21         22         23         24         25
    21  C    0.000000
    22  C    1.394278   0.000000
    23  C    4.247756   3.768960   0.000000
    24  O    5.025340   4.772729   1.213930   0.000000
    25  H    4.883408   4.158411   2.096132   2.986030   0.000000
    26  C    5.025473   4.220054   1.521449   2.403912   1.111470
    27  C    4.962924   3.832543   2.504684   3.546766   2.121545
    28  C    6.277158   5.056562   3.841646   4.762149   2.898301
    29  C    7.331192   6.203823   4.266353   4.941705   3.212020
    30  C    7.448293   6.510395   3.738216   4.096884   2.958521
    31  C    6.484884   5.713616   2.528682   2.803134   2.118703
    32  H    4.878443   3.817360   6.772100   7.921672   6.496150
    33  H    5.577667   4.951564   8.271751   9.291670   8.466026
    34  H    5.757017   5.348671   8.187967   8.986738   8.967692
    35  H    5.274907   4.754365   6.533039   7.153551   7.690408
    36  H    4.539525   3.567150   4.492259   5.258984   5.453381
    37  H    5.862957   4.559957   4.630769   5.545937   4.755609
    38  H    6.758409   5.416903   6.967567   8.110772   6.270763
    39  H    7.992751   6.781031   8.494278   9.681938   7.291595
    40  H    7.560928   6.581789   8.278596   9.452521   6.739373
    41  H    5.660264   4.877869   6.397386   7.520561   4.854350
    42  H    3.744272   2.707217   4.190430   5.374341   3.140504
    43  H    3.398272   3.870733   2.641558   2.547545   4.122323
    44  H    2.162078   3.412250   4.624923   4.924580   5.660659
    45  H    1.090955   2.147743   5.336302   6.100675   5.860352
    46  H    2.135081   1.086336   4.664651   5.734912   4.784849
    47  H    6.535588   5.215882   4.721175   5.718827   3.749092
    48  H    8.301038   7.125327   5.357049   6.006624   4.189553
    49  H    8.488759   7.585371   4.620940   4.770889   3.916465
    50  H    6.859907   6.274030   2.698783   2.493910   2.725629
                   26         27         28         29         30
    26  C    0.000000
    27  C    1.519533   0.000000
    28  C    2.520419   1.492700   0.000000
    29  C    2.832475   2.452491   1.343599   0.000000
    30  C    2.466089   2.856576   2.455780   1.463835   0.000000
    31  C    1.501339   2.524037   2.856443   2.428674   1.338954
    32  H    6.518612   5.327564   5.695550   7.024570   8.011281
    33  H    8.366646   7.242375   7.818348   9.159087  10.039446
    34  H    8.612494   7.593266   8.402409   9.680702  10.343136
    35  H    7.091525   6.185484   7.121769   8.258696   8.703878
    36  H    4.777990   3.769721   4.693966   5.801835   6.258093
    37  H    4.095753   2.654487   2.776774   3.869543   4.743571
    38  H    6.173116   4.736450   4.337108   5.482963   6.785108
    39  H    7.526929   6.312226   5.701405   6.634455   7.985609
    40  H    7.326428   6.508912   6.078113   6.892526   8.019821
    41  H    5.639517   5.208568   5.229739   6.056353   6.835420
    42  H    3.666987   3.146523   3.714928   4.782616   5.401157
    43  H    4.042803   4.893743   6.323789   6.863833   6.299691
    44  H    5.799323   6.225043   7.650867   8.485985   8.245115
    45  H    6.067162   5.923803   7.168418   8.274100   8.469474
    46  H    4.877666   4.206150   5.214052   6.463922   6.989502
    47  H    3.491054   2.231749   1.086306   2.121821   3.450381
    48  H    3.910417   3.450996   2.107424   1.092045   2.205342
    49  H    3.471063   3.933961   3.413453   2.209413   1.091150
    50  H    2.222972   3.479820   3.943841   3.440493   2.131126
                   31         32         33         34         35
    31  C    0.000000
    32  H    7.812157   0.000000
    33  H    9.709400   2.466433   0.000000
    34  H    9.882039   4.301471   2.491939   0.000000
    35  H    8.191790   4.965458   4.307121   2.494925   0.000000
    36  H    5.822478   4.310491   4.962858   4.300283   2.463937
    37  H    4.822027   4.384775   5.936454   6.082285   4.717404
    38  H    7.064023   2.828258   4.875603   6.296837   6.268196
    39  H    8.363235   4.034103   6.105195   8.089224   8.489081
    40  H    8.218116   4.873262   7.065980   9.168443   9.565062
    41  H    6.684630   4.774395   6.992047   8.748295   8.811255
    42  H    4.984417   3.823518   5.961560   7.142918   6.723387
    43  H    5.008758   7.630854   8.604104   8.274260   6.848785
    44  H    7.060942   7.035198   7.521232   7.298520   6.551913
    45  H    7.539820   4.895377   5.257836   5.559976   5.527752
    46  H    6.356905   2.787367   4.003021   4.782244   4.617981
    47  H    3.941870   5.089699   7.281450   8.064528   7.019843
    48  H    3.391389   7.522369   9.717630  10.356438   9.019025
    49  H    2.118194   9.054869  11.087100  11.347986   9.632842
    50  H    1.090323   8.714878  10.515577  10.546158   8.748999
                   36         37         38         39         40
    36  H    0.000000
    37  H    2.489968   0.000000
    38  H    4.846052   3.380039   0.000000
    39  H    7.145239   5.666469   2.476860   0.000000
    40  H    8.084729   6.833798   4.306680   2.494536   0.000000
    41  H    7.185750   6.338795   4.961316   4.307122   2.492392
    42  H    4.934673   4.440140   4.307992   4.964345   4.293115
    43  H    5.586821   6.640610   8.672472  10.097142   9.586523
    44  H    5.998506   7.495410   8.826113  10.059921   9.425954
    45  H    5.194191   6.613049   7.119703   8.195147   7.702613
    46  H    3.623052   4.464622   4.698780   5.985409   5.925801
    47  H    4.706522   2.512369   3.362592   4.729066   5.403127
    48  H    6.594064   4.426142   5.625638   6.558339   6.932419
    49  H    7.201980   5.633282   7.675553   8.803258   8.846823
    50  H    6.478280   5.745369   8.118335   9.421985   9.170947
                   41         42         43         44         45
    41  H    0.000000
    42  H    2.452556   0.000000
    43  H    7.400106   5.318724   0.000000
    44  H    7.277132   5.467225   2.507386   0.000000
    45  H    5.905669   4.310369   4.309263   2.496236   0.000000
    46  H    4.524474   2.621566   4.956672   4.289151   2.438929
    47  H    4.965971   3.704834   7.071978   8.134161   7.322012
    48  H    6.432954   5.490103   7.948767   9.532327   9.206370
    49  H    7.746268   6.450633   7.104860   9.174976   9.521032
    50  H    7.492441   5.787880   4.836327   7.106144   7.932154
                   46         47         48         49         50
    46  H    0.000000
    47  H    5.145469   0.000000
    48  H    7.283507   2.445425   0.000000
    49  H    8.079613   4.316671   2.520684   0.000000
    50  H    7.034481   5.029894   4.319381   2.482967   0.000000
 Stoichiometry    C27H20O3
 Framework group  C1[X(C27H20O3)]
 Deg. of freedom   144
 Full point group                 C1      NOp   1
 Largest Abelian subgroup         C1      NOp   1
 Largest concise Abelian subgroup C1      NOp   1
                         Standard orientation:                         
 ---------------------------------------------------------------------
 Center     Atomic      Atomic             Coordinates (Angstroms)
 Number     Number       Type             X           Y           Z
 ---------------------------------------------------------------------
      1          8           0        1.196357    0.233118   -1.568149
      2          6           0        0.427832    0.068269   -0.361623
      3          6           0       -0.963519   -0.579814   -0.680010
      4          6           0       -2.040396    0.501404   -0.904546
      5          6           0       -3.310655    0.438040   -0.329066
      6          6           0       -4.267069    1.417474   -0.606858
      7          6           0       -3.965872    2.471582   -1.465105
      8          6           0       -2.699764    2.538738   -2.050419
      9          6           0       -1.749344    1.560764   -1.775212
     10          8           0       -0.862367   -1.279107   -1.915008
     11          6           0       -1.350531   -1.614888    0.374257
     12          6           0       -2.240906   -2.634289    0.011828
     13          6           0       -2.628267   -3.603047    0.933491
     14          6           0       -2.126744   -3.573432    2.235812
     15          6           0       -1.232606   -2.570664    2.601817
     16          6           0       -0.845395   -1.599307    1.676822
     17          6           0        0.530520    1.243819    0.586486
     18          6           0        1.779365    1.879709    0.719197
     19          6           0        1.919740    3.042730    1.479498
     20          6           0        0.832123    3.564139    2.170656
     21          6           0       -0.390063    2.898271    2.110124
     22          6           0       -0.540758    1.756580    1.324094
     23          6           0        3.012271    1.250432    0.173069
     24          8           0        4.023654    1.878068   -0.065267
     25          1           0        2.882882   -0.597582    1.153821
     26          6           0        2.951982   -0.267798    0.094655
     27          6           0        1.671109   -0.725221   -0.582919
     28          6           0        1.679290   -2.168529   -0.963640
     29          6           0        2.849228   -2.786918   -1.196233
     30          6           0        4.131371   -2.091232   -1.073987
     31          6           0        4.188171   -0.887874   -0.489607
     32          1           0       -3.560460   -0.370037    0.359137
     33          1           0       -5.252823    1.352591   -0.142611
     34          1           0       -4.711771    3.239292   -1.677989
     35          1           0       -2.449917    3.360546   -2.723916
     36          1           0       -0.761066    1.634597   -2.234156
     37          1           0       -0.217334   -0.785902   -2.447430
     38          1           0       -2.629090   -2.665065   -1.006306
     39          1           0       -3.324187   -4.387977    0.631757
     40          1           0       -2.428005   -4.333164    2.959108
     41          1           0       -0.823523   -2.541547    3.613145
     42          1           0       -0.134441   -0.835386    1.991660
     43          1           0        2.904993    3.506236    1.543350
     44          1           0        0.941760    4.467861    2.771348
     45          1           0       -1.247624    3.273006    2.670791
     46          1           0       -1.516222    1.279574    1.291494
     47          1           0        0.732130   -2.682479   -1.100765
     48          1           0        2.850993   -3.833966   -1.506472
     49          1           0        5.032643   -2.572289   -1.457264
     50          1           0        5.123232   -0.338566   -0.376799
 ---------------------------------------------------------------------
 Rotational constants (GHZ):      0.2107523      0.1657011      0.1257223
 Standard basis: CC-pVDZ (5D, 7F)
 There are   550 symmetry adapted cartesian basis functions of A   symmetry.
 There are   520 symmetry adapted basis functions of A   symmetry.
   520 basis functions,  1130 primitive gaussians,   550 cartesian basis functions
   103 alpha electrons      103 beta electrons
       nuclear repulsion energy      2901.7396880513 Hartrees.
 NAtoms=   50 NActive=   50 NUniq=   50 SFac= 1.00D+00 NAtFMM=   60 NAOKFM=F Big=F
 Integral buffers will be    131072 words long.
 Raffenetti 1 integral format.
 Two-electron integral symmetry is turned on.
 Nuclear repulsion after empirical dispersion term =     2901.6907103710 Hartrees.
 ------------------------------------------------------------------------------
 Polarizable Continuum Model (PCM)
 =================================
 Model                : C-PCM.
 Atomic radii         : UFF (Universal Force Field).
 Polarization charges : Total charges.
 Charge compensation  : None.
 Solution method      : On-the-fly selection.
 Cavity type          : Scaled VdW (van der Waals Surface) (Alpha=1.100).
 Cavity algorithm     : GePol (No added spheres)
                        Default sphere list used, NSphG=   50.
                        Lebedev-Laikov grids with approx.  5.0 points / Ang**2.
                        Smoothing algorithm: Karplus/York (Gamma=1.0000).
                        Polarization charges: spherical gaussians, with
                                              point-specific exponents (IZeta= 3).
                        Self-potential: point-specific (ISelfS= 7).
                        Self-field    : sphere-specific E.n sum rule (ISelfD= 2).
 Solvent              : n,n-DiMethylFormamide, Eps=  37.219000 Eps(inf)=   2.046330
 ------------------------------------------------------------------------------
 One-electron integrals computed using PRISM.
 NBasis=   520 RedAO= T EigKep=  2.07D-04  NBF=   520
 NBsUse=   520 1.00D-06 EigRej= -1.00D+00 NBFU=   520
 Initial guess from the checkpoint file:  "D:\Yaroslav\pink-mystery\OS6\conf1_singlet\OS6_conf1_1106kjm_opt.chk"
 B after Tr=     0.000000    0.000000    0.000000
         Rot=    1.000000    0.000000    0.000000    0.000000 Ang=   0.00 deg.
 Requested convergence on RMS density matrix=1.00D-08 within 128 cycles.
 Requested convergence on MAX density matrix=1.00D-06.
 Requested convergence on             energy=1.00D-06.
 No special actions if energy rises.
 Inv3:  Mode=1 IEnd=    34618827.
 Iteration    1 A*A^-1 deviation from unit magnitude is 9.77D-15 for     82.
 Iteration    1 A*A^-1 deviation from orthogonality  is 5.02D-15 for    287     82.
 Iteration    1 A^-1*A deviation from unit magnitude is 6.66D-15 for     82.
 Iteration    1 A^-1*A deviation from orthogonality  is 2.47D-15 for   2447    179.
 Error on total polarization charges =  0.01344
 SCF Done:  E(RwB97XD) =  -1266.21610419     A.U. after    1 cycles
            NFock=  1  Conv=0.37D-08     -V/T= 2.0065
 DoSCS=F DFT=T ScalE2(SS,OS)=  1.000000  1.000000
 ExpMin= 1.22D-01 ExpMax= 1.17D+04 ExpMxC= 4.01D+02 IAcc=3 IRadAn=         5 AccDes= 0.00D+00
 HarFok:  IExCor=  205 AccDes= 0.00D+00 IRadAn=         5 IDoV=-2 UseB2=F ITyADJ=14
 ICtDFT= 12500011 ScaDFX=  1.000000  1.000000  1.000000  1.000000
 Range of M.O.s used for correlation:    31   520
 NBasis=   520 NAE=   103 NBE=   103 NFC=    30 NFV=     0
 NROrb=    490 NOA=    73 NOB=    73 NVA=   417 NVB=   417

 **** Warning!!: The largest alpha MO coefficient is  0.16173530D+02

 Would need an additional         53032200000 words for in-memory AO integral storage.
 NEqPCM:  Using non-equilibrium solvation (IEInf=1, Eps=  37.2190, EpsInf=   2.0463)
 Inv3:  Mode=1 IEnd=    34618827.
 Iteration    1 A*A^-1 deviation from unit magnitude is 9.77D-15 for     82.
 Iteration    1 A*A^-1 deviation from orthogonality  is 5.02D-15 for    287     82.
 Iteration    1 A^-1*A deviation from unit magnitude is 6.66D-15 for     82.
 Iteration    1 A^-1*A deviation from orthogonality  is 2.47D-15 for   2447    179.
 Orbital symmetries:
       Occupied  (A) (A) (A) (A) (A) (A) (A) (A) (A) (A) (A) (A)
                 (A) (A) (A) (A) (A) (A) (A) (A) (A) (A) (A) (A)
                 (A) (A) (A) (A) (A) (A) (A) (A) (A) (A) (A) (A)
                 (A) (A) (A) (A) (A) (A) (A) (A) (A) (A) (A) (A)
                 (A) (A) (A) (A) (A) (A) (A) (A) (A) (A) (A) (A)
                 (A) (A) (A) (A) (A) (A) (A) (A) (A) (A) (A) (A)
                 (A) (A) (A) (A) (A) (A) (A) (A) (A) (A) (A) (A)
                 (A) (A) (A) (A) (A) (A) (A) (A) (A) (A) (A) (A)
                 (A) (A) (A) (A) (A) (A) (A)
       Virtual   (A) (A) (A) (A) (A) (A) (A) (A) (A) (A) (A) (A)
                 (A) (A) (A) (A) (A) (A) (A) (A) (A) (A) (A) (A)
                 (A) (A) (A) (A) (A) (A) (A) (A) (A) (A) (A) (A)
                 (A) (A) (A) (A) (A) (A) (A) (A) (A) (A) (A) (A)
                 (A) (A) (A) (A) (A) (A) (A) (A) (A) (A) (A) (A)
                 (A) (A) (A) (A) (A) (A) (A) (A) (A) (A) (A) (A)
                 (A) (A) (A) (A) (A) (A) (A) (A) (A) (A) (A) (A)
                 (A) (A) (A) (A) (A) (A) (A) (A) (A) (A) (A) (A)
                 (A) (A) (A) (A) (A) (A) (A) (A) (A) (A) (A) (A)
                 (A) (A) (A) (A) (A) (A) (A) (A) (A) (A) (A) (A)
                 (A) (A) (A) (A) (A) (A) (A) (A) (A) (A) (A) (A)
                 (A) (A) (A) (A) (A) (A) (A) (A) (A) (A) (A) (A)
                 (A) (A) (A) (A) (A) (A) (A) (A) (A) (A) (A) (A)
                 (A) (A) (A) (A) (A) (A) (A) (A) (A) (A) (A) (A)
                 (A) (A) (A) (A) (A) (A) (A) (A) (A) (A) (A) (A)
                 (A) (A) (A) (A) (A) (A) (A) (A) (A) (A) (A) (A)
                 (A) (A) (A) (A) (A) (A) (A) (A) (A) (A) (A) (A)
                 (A) (A) (A) (A) (A) (A) (A) (A) (A) (A) (A) (A)
                 (A) (A) (A) (A) (A) (A) (A) (A) (A) (A) (A) (A)
                 (A) (A) (A) (A) (A) (A) (A) (A) (A) (A) (A) (A)
                 (A) (A) (A) (A) (A) (A) (A) (A) (A) (A) (A) (A)
                 (A) (A) (A) (A) (A) (A) (A) (A) (A) (A) (A) (A)
                 (A) (A) (A) (A) (A) (A) (A) (A) (A) (A) (A) (A)
                 (A) (A) (A) (A) (A) (A) (A) (A) (A) (A) (A) (A)
                 (A) (A) (A) (A) (A) (A) (A) (A) (A) (A) (A) (A)
                 (A) (A) (A) (A) (A) (A) (A) (A) (A) (A) (A) (A)
                 (A) (A) (A) (A) (A) (A) (A) (A) (A) (A) (A) (A)
                 (A) (A) (A) (A) (A) (A) (A) (A) (A) (A) (A) (A)
                 (A) (A) (A) (A) (A) (A) (A) (A) (A) (A) (A) (A)
                 (A) (A) (A) (A) (A) (A) (A) (A) (A) (A) (A) (A)
                 (A) (A) (A) (A) (A) (A) (A) (A) (A) (A) (A) (A)
                 (A) (A) (A) (A) (A) (A) (A) (A) (A) (A) (A) (A)
                 (A) (A) (A) (A) (A) (A) (A) (A) (A) (A) (A) (A)
                 (A) (A) (A) (A) (A) (A) (A) (A) (A) (A) (A) (A)
                 (A) (A) (A) (A) (A) (A) (A) (A) (A)
   240 initial guesses have been made.
 Convergence on wavefunction:    0.001000000000000
 Iteration     1 Dimension   240 NMult     0 NNew    240
 CISAX will form   240 AO SS matrices at one time.
 New state      1 was old state     12
 New state      2 was old state      1
 New state      3 was old state      9
 New state      4 was old state      3
 New state      5 was old state     21
 New state      6 was old state     35
 New state      7 was old state      8
 New state      8 was old state      2
 New state      9 was old state     23
 New state     10 was old state     36
 New state     11 was old state      5
 New state     12 was old state     20
 New state     13 was old state      4
 New state     14 was old state     54
 New state     15 was old state     17
 New state     16 was old state     10
 New state     17 was old state      6
 New state     18 was old state      7
 New state     19 was old state     32
 New state     20 was old state     44
 New state     21 was old state     15
 New state     22 was old state     29
 New state     23 was old state     62
 New state     24 was old state     11
 New state     25 was old state     31
 New state     26 was old state     14
 New state     27 was old state     18
 New state     28 was old state     27
 New state     29 was old state     25
 New state     30 was old state     26
 New state     31 was old state     24
 New state     32 was old state     19
 New state     33 was old state     82
 New state     34 was old state     40
 New state     35 was old state     30
 New state     36 was old state     42
 New state     37 was old state     64
 New state     38 was old state     22
 New state     40 was old state     28
 New state     41 was old state     86
 New state     42 was old state     33
 New state     43 was old state     13
 New state     44 was old state     43
 New state     45 was old state     16
 New state     46 was old state     47
 New state     47 was old state     38
 New state     48 was old state     58
 New state     49 was old state     59
 New state     50 was old state     41
 New state     51 was old state     37
 New state     52 was old state     45
 New state     53 was old state     69
 New state     54 was old state     67
 New state     55 was old state     68
 New state     56 was old state     46
 New state     57 was old state     56
 New state     58 was old state     60
 New state     59 was old state     78
 New state     60 was old state     97
 Iteration     2 Dimension   360 NMult   240 NNew    120
 New state      2 was old state      4
 New state      3 was old state      2
 New state      4 was old state      3
 New state      5 was old state      7
 New state      6 was old state      5
 New state      7 was old state      6
 New state      9 was old state     15
 New state     10 was old state      9
 New state     11 was old state     10
 New state     12 was old state     23
 New state     13 was old state     14
 New state     14 was old state     11
 New state     15 was old state     17
 New state     16 was old state     12
 New state     17 was old state     13
 New state     18 was old state     16
 New state     19 was old state     18
 New state     21 was old state     19
 New state     22 was old state     21
 New state     23 was old state     22
 New state     24 was old state     25
 New state     25 was old state     27
 New state     27 was old state     31
 New state     28 was old state     24
 New state     29 was old state     28
 New state     30 was old state     38
 New state     31 was old state     29
 New state     32 was old state     30
 New state     33 was old state     35
 New state     34 was old state     37
 New state     35 was old state     32
 New state     36 was old state     34
 New state     37 was old state     33
 New state     38 was old state     42
 New state     39 was old state     36
 New state     40 was old state     41
 New state     41 was old state     39
 New state     42 was old state     40
 New state     43 was old state     47
 New state     44 was old state     45
 New state     45 was old state     44
 New state     47 was old state     53
 New state     48 was old state     43
 New state     49 was old state     48
 New state     50 was old state     49
 New state     53 was old state     50
 New state     59 was old state     60
 New state     60 was old state     59
 Iteration     3 Dimension   480 NMult   360 NNew    120
 New state     36 was old state     37
 New state     37 was old state     36
 New state     55 was old state     56
 New state     56 was old state     55
 New state     58 was old state     59
 New state     59 was old state     58
 Iteration     4 Dimension   598 NMult   480 NNew    118
 Iteration     5 Dimension   684 NMult   598 NNew     86
 Iteration     6 Dimension   698 NMult   684 NNew     14
 Iteration     7 Dimension   700 NMult   698 NNew      2
 ***********************************************************************
 Excited states from <AA,BB:AA,BB> singles matrix:
 ***********************************************************************
 
 Ground to excited state transition densities written to RWF  633
 Ground to excited state transition electric dipole moments (Au):
       state          X           Y           Z        Dip. S.      Osc.
         1        -0.0891      0.0476      0.0456      0.0123      0.0013
         2         0.8671     -0.1178      0.0392      0.7673      0.0892
         3        -0.6857     -0.6985     -0.3945      1.1137      0.1337
         4         0.1187     -0.2394     -0.0754      0.0771      0.0097
         5        -1.1670      0.0248      0.2906      1.4469      0.1874
         6        -0.1186     -0.0761      0.0802      0.0263      0.0035
         7         0.0320     -0.0001      0.0124      0.0012      0.0002
         8        -0.1518     -0.2818     -0.5085      0.3610      0.0528
         9         0.3055     -0.8918      0.0628      0.8926      0.1312
        10         0.0018     -0.7087     -0.4210      0.6795      0.1004
        11        -0.6736      0.5830      0.4513      0.9973      0.1497
        12         0.2173     -0.2657      0.0526      0.1206      0.0182
        13        -0.8056     -0.7665     -0.6730      1.6894      0.2578
        14         0.3938      0.1769     -0.0626      0.1903      0.0292
        15         1.0314     -0.8697     -0.4981      2.0684      0.3202
        16        -0.6064     -0.0782      0.3918      0.5273      0.0824
        17        -0.2586      0.0076     -0.2211      0.1158      0.0182
        18        -0.1938      1.0164     -0.2270      1.1222      0.1767
        19        -0.5160      0.2083     -0.3374      0.4235      0.0683
        20        -0.4125     -0.2936      0.0769      0.2623      0.0426
        21         0.2970     -0.5051     -0.0013      0.3433      0.0559
        22         0.3934     -1.0663      1.0580      2.4110      0.3939
        23        -0.3424      0.6443      0.2992      0.6219      0.1018
        24        -0.1114      1.0168     -0.4622      1.2599      0.2073
        25         1.0015     -0.6786      0.3209      1.5664      0.2580
        26        -1.2311     -1.0685      0.9310      3.5241      0.5875
        27        -0.2989      0.5157     -0.7630      0.9375      0.1571
        28        -0.8755     -0.5963     -0.8335      1.8168      0.3052
        29        -0.0342     -0.3737     -0.1785      0.1727      0.0293
        30         0.1534      0.1589     -0.6297      0.4452      0.0757
        31        -0.3297      0.2242      0.3388      0.2737      0.0466
        32         0.1580     -0.1245     -0.3231      0.1449      0.0249
        33        -0.2169     -0.2073     -0.2773      0.1669      0.0287
        34         0.8499      0.0677     -0.2877      0.8097      0.1404
        35         0.1314      0.4623     -0.0196      0.2314      0.0402
        36        -0.9434      0.2039      0.7314      1.4664      0.2555
        37         0.2797      0.1197     -0.3059      0.1861      0.0325
        38         0.1864      0.3236      0.0194      0.1398      0.0245
        39         0.2544     -0.3752     -0.0767      0.2114      0.0371
        40         0.0937      0.1092     -0.0693      0.0255      0.0045
        41        -0.1923      0.3195     -0.0242      0.1396      0.0248
        42        -0.2322     -0.1452      0.0791      0.0812      0.0145
        43         0.1391     -0.4303      0.1642      0.2315      0.0416
        44        -0.1284      0.2155     -0.1555      0.0871      0.0158
        45        -0.2877     -0.1570     -0.0943      0.1163      0.0212
        46         0.0021     -0.3305      0.0820      0.1159      0.0212
        47         0.0367      0.3232      0.3563      0.2327      0.0425
        48         0.1778      0.0528      0.0268      0.0351      0.0065
        49         0.1204      0.3164      0.4099      0.2826      0.0521
        50         0.4239      0.2142     -0.0398      0.2272      0.0420
        51        -0.2629      0.2741      0.3425      0.2616      0.0484
        52         0.1441     -0.0629     -0.1280      0.0411      0.0076
        53        -0.3128      0.1160     -0.1157      0.1247      0.0232
        54         0.4471      0.1582     -0.2585      0.2917      0.0545
        55        -0.2064      0.0135      0.1243      0.0582      0.0109
        56        -0.1485      0.2819      0.1964      0.1401      0.0263
        57        -0.3302      0.4055      0.2547      0.3383      0.0638
        58         0.2919     -0.0958     -0.0503      0.0969      0.0183
        59         0.2067     -0.0118      0.0445      0.0448      0.0085
        60         0.0243      0.5520      0.1691      0.3339      0.0632
 Ground to excited state transition velocity dipole moments (Au):
       state          X           Y           Z        Dip. S.      Osc.
         1         0.0129     -0.0090     -0.0078      0.0003      0.0013
         2        -0.1516      0.0201     -0.0090      0.0235      0.0897
         3         0.1241      0.1260      0.0714      0.0364      0.1346
         4        -0.0216      0.0423      0.0158      0.0025      0.0089
         5         0.2228     -0.0031     -0.0557      0.0527      0.1809
         6         0.0228      0.0155     -0.0182      0.0011      0.0037
         7        -0.0056     -0.0001     -0.0013      0.0000      0.0001
         8         0.0270      0.0590      0.1090      0.0161      0.0489
         9        -0.0699      0.1976     -0.0154      0.0442      0.1336
        10         0.0009      0.1560      0.0990      0.0341      0.1027
        11         0.1479     -0.1309     -0.1024      0.0495      0.1465
        12        -0.0471      0.0601     -0.0108      0.0060      0.0175
        13         0.1858      0.1756      0.1526      0.0886      0.2582
        14        -0.0853     -0.0397      0.0188      0.0092      0.0266
        15        -0.2366      0.2003      0.1152      0.1093      0.3139
        16         0.1417      0.0170     -0.0928      0.0290      0.0824
        17         0.0606      0.0014      0.0546      0.0067      0.0188
        18         0.0412     -0.2425      0.0533      0.0633      0.1788
        19         0.1269     -0.0541      0.0822      0.0258      0.0710
        20         0.0991      0.0723     -0.0189      0.0154      0.0422
        21        -0.0718      0.1214     -0.0010      0.0199      0.0543
        22        -0.0956      0.2576     -0.2591      0.1426      0.3879
        23         0.0764     -0.1501     -0.0767      0.0342      0.0930
        24         0.0268     -0.2451      0.1131      0.0736      0.1988
        25        -0.2463      0.1662     -0.0746      0.0938      0.2532
        26         0.3029      0.2625     -0.2294      0.2133      0.5686
        27         0.0723     -0.1252      0.1920      0.0578      0.1532
        28         0.2187      0.1490      0.2092      0.1138      0.3010
        29         0.0095      0.0921      0.0445      0.0106      0.0277
        30        -0.0367     -0.0454      0.1591      0.0287      0.0751
        31         0.0859     -0.0580     -0.0852      0.0180      0.0470
        32        -0.0384      0.0335      0.0825      0.0094      0.0244
        33         0.0542      0.0548      0.0699      0.0108      0.0279
        34        -0.2182     -0.0170      0.0734      0.0533      0.1367
        35        -0.0366     -0.1166      0.0089      0.0150      0.0384
        36         0.2420     -0.0502     -0.1917      0.0978      0.2496
        37        -0.0709     -0.0293      0.0805      0.0124      0.0315
        38        -0.0481     -0.0879      0.0009      0.0100      0.0255
        39        -0.0634      0.0923      0.0157      0.0128      0.0324
        40        -0.0264     -0.0291      0.0198      0.0019      0.0049
        41         0.0495     -0.0836      0.0050      0.0095      0.0237
        42         0.0602      0.0414     -0.0196      0.0057      0.0142
        43        -0.0346      0.1121     -0.0428      0.0156      0.0386
        44         0.0362     -0.0582      0.0419      0.0064      0.0158
        45         0.0791      0.0436      0.0293      0.0090      0.0220
        46        -0.0018      0.0940     -0.0207      0.0093      0.0225
        47        -0.0064     -0.0844     -0.0956      0.0163      0.0397
        48        -0.0458     -0.0133     -0.0108      0.0024      0.0058
        49        -0.0330     -0.0842     -0.1133      0.0210      0.0507
        50        -0.1133     -0.0576      0.0083      0.0162      0.0390
        51         0.0731     -0.0728     -0.0966      0.0200      0.0479
        52        -0.0423      0.0197      0.0357      0.0035      0.0083
        53         0.0882     -0.0312      0.0304      0.0097      0.0231
        54        -0.1282     -0.0406      0.0686      0.0228      0.0542
        55         0.0590     -0.0043     -0.0346      0.0047      0.0111
        56         0.0415     -0.0766     -0.0535      0.0105      0.0248
        57         0.0917     -0.1143     -0.0690      0.0263      0.0619
        58        -0.0843      0.0267      0.0124      0.0080      0.0188
        59        -0.0549      0.0029     -0.0112      0.0032      0.0074
        60        -0.0061     -0.1544     -0.0481      0.0262      0.0615
 Ground to excited state transition magnetic dipole moments (Au):
       state          X           Y           Z
         1        -0.7938     -0.3144      0.0873
         2         0.0176      1.2614     -2.2872
         3        -0.0991     -0.5226      0.9403
         4         0.0270     -0.4145      0.8933
         5        -0.2019      0.5645     -0.5480
         6        -0.0171     -0.1956     -0.1818
         7        -0.0244      0.0717      0.0014
         8         0.1399     -0.4339      0.5180
         9         0.2754     -0.6616     -0.2313
        10         0.0493     -0.2971      0.6256
        11        -0.0013      0.1038     -0.5799
        12         0.0940      0.1227      0.3516
        13        -0.2109      0.3885     -0.1133
        14        -0.0665     -0.4202      0.7170
        15         0.6969     -1.1137      1.1655
        16         0.0151      0.5335     -0.5947
        17        -0.3128      0.2380      0.0697
        18         0.1207      0.2385      0.8795
        19        -0.3415      0.3147      0.1373
        20        -0.4164     -0.1143     -0.2910
        21         0.0358      0.3049     -0.0944
        22         0.4774     -1.0198     -1.2876
        23        -0.1345     -0.1346     -0.2312
        24        -0.4416     -0.1192      0.6953
        25         0.6046      1.2120      0.5649
        26         0.0069     -0.9104     -1.2293
        27        -0.8229      1.6298      0.5065
        28        -1.8803      1.2892      0.7118
        29        -0.6190      0.2548     -0.2005
        30        -0.1025      0.7362      1.2631
        31        -0.0850     -0.5001     -0.5416
        32        -0.5281     -0.2049     -0.0871
        33        -0.4669      0.0992      0.0682
        34        -0.0798      0.4012     -0.0734
        35        -0.3156     -0.2862     -0.6409
        36         0.4151     -0.8264     -0.5583
        37         0.0717      0.6817      0.4922
        38         0.0127      0.1891      0.0382
        39         0.1336     -0.6707     -0.2651
        40        -0.1299     -0.1891      0.4083
        41         0.0562     -0.0808      0.0891
        42        -0.1946      0.1197     -0.3400
        43        -0.0327     -0.5769     -0.1122
        44        -0.3374      0.1514      0.2360
        45        -0.5460      0.1388     -0.1699
        46        -0.1472      0.2259      0.0443
        47        -0.1831     -0.3554      0.5641
        48        -0.0716     -0.3808     -0.1275
        49         0.3043     -0.1977     -0.4718
        50         0.2787      0.2012      0.2673
        51         0.1197     -0.4154     -0.1592
        52         0.1167     -0.3018      0.9466
        53        -0.1689      0.5408     -0.2029
        54         0.3601     -0.0921      0.5747
        55        -0.1321     -0.1945      0.3008
        56        -0.1117      0.0469     -0.3642
        57        -0.3541      0.0007     -0.5810
        58         0.2075     -0.1497     -0.0119
        59         0.3402     -0.1127      0.2004
        60         0.0581      0.1404      0.0277
 Ground to excited state transition velocity quadrupole moments (Au):
       state          XX          YY          ZZ          XY          XZ          YZ
         1         0.0775     -0.1016     -0.0569      0.0158      0.0254     -0.1172
         2        -1.3676      0.5496      0.1574      0.4132      0.0871      0.1483
         3         0.4480      0.2579      0.0458      0.3452      0.1573      0.4076
         4         0.1960     -0.1367     -0.0324      0.0803     -0.0135     -0.0423
         5         1.3963     -0.3993     -0.4249      0.6172      0.1256     -0.3535
         6         0.0341     -0.0028     -0.0017     -0.0299      0.0597     -0.0375
         7         0.0384      0.0150      0.0050      0.0191      0.0121      0.0304
         8        -0.8742      0.5697      0.2555      0.6944     -0.1278      0.5419
         9        -0.1798      0.2279      0.2155     -0.6610      0.4787      0.0563
        10        -0.1909      0.2803      0.1503      0.6301      0.2295      0.4275
        11         0.6086     -0.5289     -0.2161     -0.2955     -0.1963     -0.2937
        12         0.2737     -0.3621     -0.0011     -0.5049      0.1271      0.2063
        13        -0.8016      1.1846      0.4320      0.8320      0.1576      1.4096
        14        -0.4223      0.1379      0.2481     -0.4913     -0.2779      0.1101
        15        -0.7223      1.0136      0.5465     -0.7519      0.1758      0.8998
        16         0.8828     -0.2939     -0.2493     -0.2456      0.1517     -0.0464
        17        -0.4817     -0.0414     -0.0409      0.6307     -0.0499      0.2458
        18        -0.1262     -0.5611     -0.1498      0.3615     -0.8458      0.0016
        19        -0.3030     -0.2849      0.0977      0.5796     -0.2504     -0.1132
        20        -0.7113     -0.1063      0.3579     -0.3456      0.1709     -0.4206
        21         0.6708      0.0912      0.0251     -0.6508      0.3510      0.1062
        22         0.6897     -0.1882     -0.1467     -1.8202      1.0864     -0.3309
        23        -0.6298     -0.0024      0.0762      0.0426     -0.3781     -0.5907
        24        -0.9072      0.5494      0.2172      1.1068     -0.8230     -0.1069
        25         2.9459     -1.2418     -1.0250     -1.6978      0.5618      0.5936
        26        -0.7289     -0.8605     -0.1503     -1.4141      0.9361      1.1103
        27         1.0322     -0.2002      0.0570      0.4920     -0.5576     -0.3656
        28        -1.8852     -1.5989      1.3714     -1.6757     -0.4178     -0.5939
        29         0.0440      0.0837      0.5479     -1.0346      0.0989     -0.6376
        30        -0.3190     -0.9526     -0.0370     -0.1347     -0.5365      0.7658
        31        -1.0224      0.2364      0.2272      0.7670      0.0593     -0.5336
        32        -0.4522      0.8120      0.8074      0.2907      0.0951     -1.2727
        33        -0.5604     -0.2333      0.4549     -0.2763      0.0740     -0.1950
        34         1.0383      1.6272      0.7817     -0.2125     -0.1092     -1.8747
        35         0.6467      1.4902      0.4858     -0.2124     -0.0147     -0.9384
        36        -1.1654     -0.6345     -0.5047     -0.0987     -0.1153      1.0809
        37         0.6814      0.2936     -0.1420     -0.4975     -0.2227      0.3701
        38         0.2466      0.0744     -0.0786     -0.0079     -0.1219     -0.2744
        39        -0.9924      0.6788      0.5540      0.1208      0.3153     -0.6204
        40        -0.2111     -0.5528      0.0590     -0.1141     -0.2865     -0.1455
        41        -0.5789      0.1496      0.0617      0.6759     -0.1662     -0.0046
        42        -0.2773     -0.1350      0.2890     -0.4628      0.1386     -0.4123
        43        -0.4131     -0.1920      0.0303     -0.3909      0.3889      0.1138
        44        -0.0302     -0.2318      0.2264     -0.5358     -0.4408     -0.2302
        45        -0.8116     -0.2091      0.3434     -0.6337     -0.1682     -0.1486
        46         0.1084     -0.3464      0.1666     -0.6268      0.4770     -0.1951
        47        -0.5718     -1.0103     -0.0813     -0.8604     -0.3005     -0.0214
        48        -0.1829      0.0603      0.0489     -0.2210     -0.0031     -0.3668
        49         0.4966      0.4605     -0.3180      0.2035      0.2049      0.0640
        50         1.0380      0.3028     -0.3674      0.3579     -0.0314     -0.1064
        51        -0.3246     -0.6836     -0.2486     -0.0270      0.0879      0.0541
        52        -0.2492     -0.5357     -0.0977      0.3050     -0.3078      0.3015
        53        -0.3969     -0.5282      0.1310      0.1385     -0.1370     -0.3137
        54         0.3849     -0.2607      0.1411     -0.5964     -0.5633      0.1717
        55        -0.8805     -0.8499      0.1897     -0.1825     -0.1316     -0.4533
        56         0.5694      0.3102     -0.1279     -0.5198     -0.2860     -0.0511
        57        -0.3237     -0.4700     -0.1786      0.0139      0.0532     -0.2859
        58         0.8565      0.3267     -0.1180     -0.2499     -0.0740      0.1534
        59        -0.1064     -0.2202     -0.0714     -0.3516      0.0101      0.0632
        60        -0.2063     -0.8580     -0.3803      0.1331     -0.3061      0.0158
 <0|del|b> * <b|rxdel|0> + <0|del|b> * <b|delr+rdel|0>
 Rotatory Strengths (R) in cgs (10**-40 erg-esu-cm/Gauss)
       state          XX          YY          ZZ    R(velocity)    E-M Angle
         1         5.2235    -28.2486    -14.0236    -12.3496      122.35
         2        81.8446     -1.9187     95.0558     58.3272       83.81
         3        12.1230    158.6062   -213.7641    -14.3450       93.05
         4        -3.0041     24.6913    -36.7893     -5.0341       94.68
         5        -9.4471   -107.0787     57.5806    -19.6484       94.98
         6        -0.2033      2.6944     -2.9230     -0.1440       90.79
         7        -0.0577     -0.0182      0.5238      0.1493       72.99
         8       183.8967     -1.2475    -71.0164     37.2109       66.71
         9      -339.3391    -47.8327    -82.5215   -156.5644      157.69
        10        67.3181     -0.0077    -17.3720     16.6461       82.99
        11        79.1141    -22.8056     86.9452     47.7512       69.63
        12         2.1668    -36.5615     31.7418     -0.8843       91.64
        13       232.0067    121.2618   -316.8902     12.1261       85.03
        14        15.2028     29.2135     65.7260     36.7141       63.36
        15      -320.6307   -238.6832   -212.9270   -257.4136      115.89
        16       127.5001     42.1963     30.7202     66.8055       60.77
        17        57.9558    -52.0371    -50.3842    -14.8218      117.07
        18      -294.5601     48.8781    227.8059     -5.9587       91.48
        19        41.3886   -137.3715    -47.4106    -47.7978      129.14
        20       -12.4532   -121.8712      6.5458    -42.5929      132.94
        21        -6.9711    -15.6104    122.6159     33.3448       40.32
        22       378.9712   -219.2606    -86.6942     24.3388       87.75
        23       -31.8176    -49.5059    161.0158     26.5641       60.05
        24        44.7789    -87.7025    318.0429     91.7065       64.83
        25       275.5682   -663.7570    418.1330      9.9814       88.67
        26       171.7917    418.5050   -462.9727     42.4413       86.35
        27      -115.7605   -116.9307   -235.4298   -156.0403      111.43
        28        73.9773    -58.5107   -212.5317    -65.6884       95.00
        29       -56.5107     35.0420     45.5156      8.0156       83.08
        30       168.9353    274.7966     31.6241    158.4520       46.40
        31        18.2869     80.8311     88.6674     62.5951       47.03
        32         9.2741     52.2111    -44.3417      5.7145       83.55
        33       -18.0096    -16.1604     -7.1672    -13.7791      107.51
        34       -40.3316    593.9246   -539.4447      4.7161       86.89
        35        32.6625     57.0925     16.6948     35.4833       65.43
        36       218.7098    609.0344   -154.0038    224.5801       42.53
        37       -36.3906     65.2697     10.3713     13.0835       81.08
        38       -36.7486     17.0093    -26.5539    -15.4310      152.57
        39      -125.2855     33.2941   -108.2738    -66.7551      154.00
        40         3.9562     23.4100     17.8710     15.0790       34.42
        41        -4.3735     -0.5196     31.4057      8.8375       39.35
        42        19.6995    -51.3585     31.3650     -0.0980       90.21
        43      -113.9237    -19.3152    -21.0196    -51.4195      143.07
        44       -61.0112     15.3120     16.8147     -9.6282      108.42
        45       -13.1719    -53.4433    -42.2856    -36.3003      138.93
        46       -14.9270    -17.1139     85.1286     17.6959       38.52
        47        42.5210   -173.9647     72.7283    -19.5718      104.94
        48        11.2913     24.4191    -10.7597      8.3169       60.78
        49        82.2360     82.2868    -10.9205     51.2008       45.89
        50       -10.4234    -25.8680    -68.1025    -34.7980      137.57
        51        69.5213     32.4402     36.4539     46.1385       33.40
        52        56.9419      6.6347     -5.3524     19.4081       67.06
        53       -29.2729    -66.9480      0.1902    -32.0103      129.89
        54       -25.9856     15.3295      3.0787     -2.5258       91.67
        55        -4.8089    -64.5061     25.6111    -14.5680      131.59
        56        27.4463    -18.9807     19.8497      9.4384       73.33
        57        56.4629    -22.0516    -15.5266      6.2949       86.07
        58        -6.5654    -34.3147    -13.1451    -18.0084      161.07
        59         1.6743    -35.3586    -19.3407    -17.6750      157.30
        60       -95.4518      5.7480     31.5313    -19.3909      159.20
 1/2[<0|r|b>*<b|rxdel|0> + (<0|rxdel|b>*<b|r|0>)*]
 Rotatory Strengths (R) in cgs (10**-40 erg-esu-cm/Gauss)
       state          XX          YY          ZZ     R(length)
         1       -50.0015     10.5810     -2.8169    -14.0791
         2       -10.7881    105.0375     63.4184     52.5559
         3       -48.0388   -258.1750    262.3459    -14.6226
         4        -2.2687    -70.1907     47.6413     -8.2727
         5      -166.6491     -9.8842    112.6304    -21.3010
         6        -1.4333    -10.5296     10.3185     -0.5482
         7         0.5506      0.0054     -0.0123      0.1813
         8        15.0174    -86.4544    186.2692     38.2774
         9       -59.5113   -417.2208     10.2714   -155.4869
        10        -0.0637   -148.9211    186.2520     12.4224
        11        -0.6353    -42.7724    185.0766     47.2230
        12       -14.4452     23.0560    -13.0690     -1.4861
        13      -120.1200    210.5904    -53.9423     12.1760
        14        18.5304     52.5610     31.7614     34.2843
        15      -508.3579   -684.9548    410.5220   -260.9302
        16         6.4607     29.4957    164.7557     66.9040
        17       -57.2025     -1.2852     10.8995    -15.8628
        18        16.5421   -171.4133    141.1770     -4.5647
        19      -124.6102    -46.3650     32.7521    -46.0744
        20      -121.4651    -23.7305     15.8229    -43.1243
        21        -7.5191    108.9054     -0.0885     33.7659
        22      -132.7909   -768.9495    963.3436     20.5344
        23       -32.5696     61.3265     48.9214     25.8928
        24       -34.7964     85.7242    227.2584     92.7288
        25      -428.2044    581.6273   -128.2040      8.4063
        26         6.0299   -687.9013    809.3468     42.4918
        27      -173.9371   -594.3080    273.3129   -164.9774
        28     -1164.1008    543.6090    419.5655    -66.9754
        29       -14.9598     67.3390    -25.3118      9.0225
        30        11.1202    -82.7206    562.4183    163.6060
        31       -19.8078     79.2866    129.7583     63.0790
        32        59.0075    -18.0438    -19.8921      7.0239
        33       -71.6238     14.5452     13.3693    -14.5698
        34        47.9447    -19.2051    -14.9298      4.6033
        35        29.3323     93.5625     -8.8652     38.0099
        36       276.9384    119.1601    288.7574    228.2853
        37       -14.1712    -57.7024    106.4695     11.5320
        38        -1.6740    -43.2763     -0.5235    -15.1579
        39       -24.0319   -177.9728    -14.3845    -72.1297
        40         8.6033     14.5985     20.0126     14.4048
        41         7.6439     18.2613      1.5258      9.1437
        42       -31.9602     12.2902     19.0113     -0.2196
        43         3.2175   -175.5474     13.0326    -53.0991
        44       -30.6279    -23.0698     25.9464     -9.2504
        45      -111.0858     15.4111    -11.3308    -35.6685
        46         0.2235     52.7849     -2.5695     16.8130
        47         4.7510     81.2221   -142.1330    -18.7200
        48         9.0026     14.2207      2.4131      8.5455
        49       -25.9169     44.2411    136.7726     51.6990
        50       -83.5475    -30.4806      7.5293    -35.4996
        51        22.2620     80.5194     38.5587     47.1134
        52       -11.9002    -13.4202     85.6615     20.1137
        53       -37.3509    -44.3734    -16.5991    -32.7745
        54      -113.8508     10.3037    105.0586      0.5038
        55       -19.2807      1.8528    -26.4472    -14.6250
        56       -11.7369     -9.3500     50.5777      9.8303
        57       -82.6663     -0.2077    104.6415      7.2559
        58       -42.8460    -10.1427     -0.4242    -17.8043
        59       -49.7187     -0.9429     -6.3085    -18.9900
        60        -0.9971    -54.7883     -3.3178    -19.7011
  1/2[<0|del|b>*<b|r|0> + (<0|r|b>*<b|del|0>)*] (Au)
       state          X           Y           Z        Dip. S.   Osc.(frdel)
         1        -0.0011     -0.0004     -0.0004      0.0019      0.0013
         2        -0.1314     -0.0024     -0.0004      0.1341      0.0894
         3        -0.0851     -0.0880     -0.0282      0.2012      0.1342
         4        -0.0026     -0.0101     -0.0012      0.0139      0.0093
         5        -0.2600     -0.0001     -0.0162      0.2762      0.1841
         6        -0.0027     -0.0012     -0.0015      0.0053      0.0036
         7        -0.0002      0.0000      0.0000      0.0002      0.0001
         8        -0.0041     -0.0166     -0.0554      0.0761      0.0508
         9        -0.0214     -0.1762     -0.0010      0.1985      0.1323
        10         0.0000     -0.1106     -0.0417      0.1523      0.1015
        11        -0.0996     -0.0763     -0.0462      0.2221      0.1481
        12        -0.0102     -0.0160     -0.0006      0.0268      0.0179
        13        -0.1497     -0.1346     -0.1027      0.3870      0.2580
        14        -0.0336     -0.0070     -0.0012      0.0418      0.0279
        15        -0.2440     -0.1742     -0.0574      0.4756      0.3170
        16        -0.0859     -0.0013     -0.0364      0.1236      0.0824
        17        -0.0157      0.0000     -0.0121      0.0277      0.0185
        18        -0.0080     -0.2465     -0.0121      0.2666      0.1777
        19        -0.0655     -0.0113     -0.0277      0.1045      0.0696
        20        -0.0409     -0.0212     -0.0015      0.0636      0.0424
        21        -0.0213     -0.0613      0.0000      0.0827      0.0551
        22        -0.0376     -0.2746     -0.2741      0.5863      0.3909
        23        -0.0262     -0.0967     -0.0230      0.1458      0.0972
        24        -0.0030     -0.2493     -0.0523      0.3045      0.2030
        25        -0.2466     -0.1128     -0.0239      0.3834      0.2556
        26        -0.3729     -0.2805     -0.2135      0.8669      0.5779
        27        -0.0216     -0.0646     -0.1465      0.2327      0.1551
        28        -0.1915     -0.0888     -0.1743      0.4546      0.3031
        29        -0.0003     -0.0344     -0.0079      0.0427      0.0285
        30        -0.0056     -0.0072     -0.1002      0.1130      0.0754
        31        -0.0283     -0.0130     -0.0289      0.0702      0.0468
        32        -0.0061     -0.0042     -0.0267      0.0369      0.0246
        33        -0.0118     -0.0114     -0.0194      0.0425      0.0283
        34        -0.1855     -0.0012     -0.0211      0.2077      0.1385
        35        -0.0048     -0.0539     -0.0002      0.0589      0.0393
        36        -0.2283     -0.0102     -0.1402      0.3788      0.2525
        37        -0.0198     -0.0035     -0.0246      0.0480      0.0320
        38        -0.0090     -0.0284      0.0000      0.0374      0.0249
        39        -0.0161     -0.0346     -0.0012      0.0520      0.0346
        40        -0.0025     -0.0032     -0.0014      0.0070      0.0047
        41        -0.0095     -0.0267     -0.0001      0.0364      0.0242
        42        -0.0140     -0.0060     -0.0015      0.0215      0.0144
        43        -0.0048     -0.0483     -0.0070      0.0601      0.0401
        44        -0.0046     -0.0125     -0.0065      0.0237      0.0158
        45        -0.0228     -0.0068     -0.0028      0.0324      0.0216
        46         0.0000     -0.0311     -0.0017      0.0328      0.0219
        47        -0.0002     -0.0273     -0.0341      0.0616      0.0411
        48        -0.0081     -0.0007     -0.0003      0.0091      0.0061
        49        -0.0040     -0.0266     -0.0464      0.0771      0.0514
        50        -0.0480     -0.0123     -0.0003      0.0607      0.0405
        51        -0.0192     -0.0199     -0.0331      0.0723      0.0482
        52        -0.0061     -0.0012     -0.0046      0.0119      0.0079
        53        -0.0276     -0.0036     -0.0035      0.0347      0.0231
        54        -0.0573     -0.0064     -0.0177      0.0815      0.0543
        55        -0.0122     -0.0001     -0.0043      0.0165      0.0110
        56        -0.0062     -0.0216     -0.0105      0.0383      0.0255
        57        -0.0303     -0.0464     -0.0176      0.0942      0.0628
        58        -0.0246     -0.0026     -0.0006      0.0278      0.0185
        59        -0.0113      0.0000     -0.0005      0.0119      0.0079
        60        -0.0001     -0.0852     -0.0081      0.0935      0.0624

 Excitation energies and oscillator strengths:
 
 Excited State   1:      Singlet-A      4.1814 eV  296.52 nm  f=0.0013  <S**2>=0.000
      96 ->104         0.44776
      96 ->111         0.16421
      97 ->104         0.38660
      97 ->111         0.13390
      98 ->104         0.19997
      99 ->104        -0.13520
 This state for optimization and/or second-order correction.
 Total Energy, E(TD-HF/TD-KS) =  -1266.06244170    
 Copying the excited state density for this state as the 1-particle RhoCI density.
 
 Excited State   2:      Singlet-A      4.7452 eV  261.28 nm  f=0.0892  <S**2>=0.000
      97 ->104        -0.10126
      99 ->104        -0.12998
     102 ->104         0.15472
     103 ->104         0.28028
     103 ->105         0.57869
 
 Excited State   3:      Singlet-A      4.9008 eV  252.99 nm  f=0.1337  <S**2>=0.000
      96 ->104         0.20278
      97 ->104        -0.28834
      98 ->106        -0.18239
      99 ->104        -0.22376
      99 ->106         0.11043
     102 ->104         0.35736
     103 ->104         0.13260
     103 ->105        -0.29271
 
 Excited State   4:      Singlet-A      5.1276 eV  241.80 nm  f=0.0097  <S**2>=0.000
      97 ->104         0.13390
      99 ->104         0.13683
     103 ->104         0.60681
     103 ->105        -0.18600
     103 ->111         0.12267
 
 Excited State   5:      Singlet-A      5.2879 eV  234.47 nm  f=0.1874  <S**2>=0.000
      96 ->104        -0.33280
      98 ->104         0.45724
      99 ->104        -0.27525
     100 ->104        -0.11753
     103 ->105        -0.13981
 
 Excited State   6:      Singlet-A      5.4073 eV  229.29 nm  f=0.0035  <S**2>=0.000
      97 ->109         0.10404
      98 ->106         0.10452
      98 ->107         0.10219
      98 ->109        -0.14668
      99 ->107         0.12625
      99 ->110         0.12334
     100 ->107         0.19302
     100 ->108        -0.10691
     100 ->109        -0.21452
     101 ->107        -0.14058
     101 ->110        -0.11308
     102 ->107         0.24919
     102 ->108         0.23766
     102 ->109         0.16284
     102 ->110         0.22292
 
 Excited State   7:      Singlet-A      5.4823 eV  226.15 nm  f=0.0002  <S**2>=0.000
      98 ->107        -0.12515
      99 ->107        -0.21484
      99 ->108         0.15643
      99 ->109        -0.15279
     100 ->107         0.23722
     100 ->109         0.11133
     100 ->110        -0.20847
     101 ->106        -0.13887
     101 ->107         0.10410
     101 ->108         0.31737
     101 ->109        -0.19535
     101 ->110        -0.16636
     102 ->110        -0.13213
 
 Excited State   8:      Singlet-A      5.9655 eV  207.84 nm  f=0.0528  <S**2>=0.000
      94 ->104        -0.21734
      94 ->105        -0.11024
      95 ->104        -0.10265
      95 ->105        -0.15132
      98 ->106         0.12886
      99 ->104         0.12532
      99 ->106        -0.12735
     102 ->104         0.37479
     102 ->105         0.17220
     102 ->107        -0.18397
     102 ->109         0.12664
 
 Excited State   9:      Singlet-A      5.9977 eV  206.72 nm  f=0.1312  <S**2>=0.000
      94 ->104        -0.10488
      99 ->109        -0.10534
     100 ->107        -0.12546
     100 ->108        -0.15420
     100 ->110        -0.10600
     101 ->107         0.13913
     101 ->109         0.12889
     102 ->104         0.21151
     102 ->106         0.32144
     102 ->107         0.25994
     102 ->108        -0.13454
     102 ->109        -0.23705
 
 Excited State  10:      Singlet-A      6.0320 eV  205.54 nm  f=0.1004  <S**2>=0.000
      92 ->105         0.12743
      94 ->105         0.12527
      96 ->105         0.40299
      97 ->105         0.27356
      98 ->105         0.29210
      99 ->105        -0.26920
     101 ->105         0.10937
 
 Excited State  11:      Singlet-A      6.1260 eV  202.39 nm  f=0.1497  <S**2>=0.000
      91 ->105         0.11499
      94 ->105         0.18241
      95 ->104         0.14089
      95 ->105         0.29259
      96 ->104        -0.11990
      97 ->104         0.19374
      97 ->105         0.13418
      98 ->104         0.10638
      98 ->105        -0.12721
      99 ->104         0.16175
      99 ->105         0.13071
     100 ->104         0.11763
     102 ->104         0.21263
     102 ->105        -0.19883
 
 Excited State  12:      Singlet-A      6.1564 eV  201.39 nm  f=0.0182  <S**2>=0.000
      98 ->107         0.10574
      99 ->107         0.14272
      99 ->108         0.14756
      99 ->110        -0.11778
[...]
              31         32         33         34         35         36
     1  O    0.002568  -0.000002   0.000000   0.000000  -0.000007   0.011571
     2  C    0.007338   0.000446   0.000007   0.000000   0.000032  -0.003272
     3  C   -0.000060  -0.027264  -0.000229   0.000018  -0.000273  -0.013944
     4  C    0.000004  -0.032793   0.009177  -0.000408   0.009157  -0.057762
     5  C    0.000000   0.403519  -0.036197   0.008793  -0.000155   0.009401
     6  C    0.000000  -0.048526   0.404931  -0.043154   0.008100  -0.001156
     7  C    0.000000   0.009577  -0.047907   0.408694  -0.046905   0.009716
     8  C    0.000000  -0.001213   0.008141  -0.044126   0.404922  -0.036873
     9  C    0.000000   0.011216  -0.000281   0.008885  -0.036811   0.405741
    10  O   -0.000001   0.000375   0.000002   0.000000   0.000004   0.001633
    11  C   -0.000017   0.007847   0.000024  -0.000001   0.000006   0.000918
    12  C    0.000000   0.001206   0.000014   0.000000   0.000000  -0.000024
    13  C    0.000000   0.001146  -0.000002   0.000000   0.000000  -0.000001
    14  C    0.000000   0.000177  -0.000001   0.000000   0.000000   0.000000
    15  C    0.000000  -0.000003   0.000000   0.000000   0.000000   0.000001
    16  C    0.000002  -0.000956   0.000004   0.000000   0.000000   0.000013
    17  C    0.000159  -0.000082  -0.000003   0.000000  -0.000006  -0.001124
    18  C    0.010467   0.000001   0.000000   0.000000  -0.000003  -0.000108
    19  C   -0.000620   0.000000   0.000000   0.000000   0.000000   0.000032
    20  C    0.000000   0.000001   0.000000   0.000000   0.000001  -0.000019
    21  C    0.000001  -0.000012   0.000002   0.000000   0.000007  -0.000051
    22  C    0.000013  -0.000769   0.000012   0.000002   0.000030   0.000350
    23  C   -0.039339   0.000000   0.000000   0.000000   0.000000   0.000177
    24  O    0.012949   0.000000   0.000000   0.000000   0.000000  -0.000003
    25  H   -0.009659   0.000000   0.000000   0.000000   0.000000  -0.000009
    26  C    0.306167   0.000000   0.000000   0.000000   0.000000  -0.000115
    27  C   -0.033008  -0.000011   0.000000   0.000000   0.000000   0.000621
    28  C   -0.052754   0.000001   0.000000   0.000000   0.000000  -0.000018
    29  C   -0.018541   0.000000   0.000000   0.000000   0.000000   0.000006
    30  C    0.606932   0.000000   0.000000   0.000000   0.000000  -0.000001
    31  C    4.820866   0.000000   0.000000   0.000000   0.000000   0.000000
    32  H    0.000000   0.676467  -0.013411  -0.000181   0.000041  -0.000077
    33  H    0.000000  -0.013411   0.666235  -0.011932  -0.000189   0.000039
    34  H    0.000000  -0.000181  -0.011932   0.664464  -0.011807  -0.000177
    35  H    0.000000   0.000041  -0.000189  -0.011807   0.665101  -0.013560
    36  H    0.000000  -0.000077   0.000039  -0.000177  -0.013560   0.680731
    37  H   -0.000056  -0.000043   0.000000   0.000000   0.000004   0.001639
    38  H    0.000000   0.000119   0.000004   0.000000   0.000000   0.000009
    39  H    0.000000   0.000009   0.000000   0.000000   0.000000   0.000000
    40  H    0.000000   0.000009   0.000000   0.000000   0.000000   0.000000
    41  H    0.000000   0.000007   0.000000   0.000000   0.000000   0.000000
    42  H   -0.000007  -0.000033   0.000000   0.000000   0.000000   0.000019
    43  H   -0.000123   0.000000   0.000000   0.000000   0.000000   0.000001
    44  H    0.000000   0.000000   0.000000   0.000000   0.000000   0.000000
    45  H    0.000000  -0.000007   0.000001   0.000000   0.000000   0.000003
    46  H   -0.000001   0.001831   0.000000   0.000002   0.000007   0.000078
    47  H   -0.000573   0.000005   0.000000   0.000000   0.000000  -0.000090
    48  H    0.008502   0.000000   0.000000   0.000000   0.000000   0.000000
    49  H   -0.039906   0.000000   0.000000   0.000000   0.000000   0.000000
    50  H    0.400599   0.000000   0.000000   0.000000   0.000000   0.000000
              37         38         39         40         41         42
     1  O    0.037325   0.000004   0.000000   0.000000   0.000000   0.000117
     2  C   -0.015668   0.002186   0.000002   0.000000   0.000000   0.009569
     3  C   -0.039763  -0.014712  -0.000277   0.000018  -0.000251  -0.024381
     4  C   -0.007448  -0.001350  -0.000001   0.000001   0.000007   0.000190
     5  C   -0.000470   0.002325   0.000005  -0.000002  -0.000003  -0.000011
     6  C   -0.000002   0.000030   0.000001   0.000000   0.000000  -0.000008
     7  C   -0.000009   0.000003   0.000000   0.000000   0.000000   0.000000
     8  C    0.000439  -0.000028   0.000000   0.000000   0.000000  -0.000001
     9  C    0.006301  -0.000347   0.000000   0.000000   0.000000   0.000026
    10  O    0.356143   0.015849  -0.000015   0.000000   0.000002   0.000055
    11  C    0.009297  -0.053393   0.008834  -0.000460   0.009462  -0.048143
    12  C   -0.000796   0.414077  -0.038469   0.008516  -0.000295   0.009876
    13  C    0.000000  -0.044072   0.406034  -0.044773   0.008162  -0.001105
    14  C    0.000000   0.009606  -0.046506   0.409078  -0.048010   0.010021
    15  C    0.000011  -0.001289   0.008059  -0.042516   0.404004  -0.042364
    16  C   -0.000146   0.009985  -0.000122   0.009047  -0.034372   0.406952
    17  C    0.001232  -0.000068   0.000000   0.000000   0.000017  -0.007409
    18  C   -0.000091   0.000000   0.000000   0.000000   0.000000  -0.000547
    19  C    0.000000   0.000000   0.000000   0.000000   0.000000  -0.000087
    20  C    0.000000   0.000000   0.000000   0.000000   0.000000  -0.000090
    21  C    0.000000   0.000000   0.000000   0.000000   0.000000   0.000787
    22  C    0.000011   0.000022   0.000000   0.000000   0.000019   0.004086
    23  C   -0.000030   0.000000   0.000000   0.000000   0.000000   0.000068
    24  O    0.000000   0.000000   0.000000   0.000000   0.000000   0.000001
    25  H   -0.000048   0.000000   0.000000   0.000000  -0.000005   0.001190
    26  C    0.000801   0.000000   0.000000   0.000000   0.000001   0.000331
    27  C   -0.005476   0.000010   0.000000   0.000000   0.000003  -0.001087
    28  C    0.002578  -0.000168  -0.000002   0.000000   0.000003  -0.000032
    29  C    0.000395  -0.000005   0.000000   0.000000   0.000001  -0.000015
    30  C    0.000030   0.000000   0.000000   0.000000   0.000000  -0.000010
    31  C   -0.000056   0.000000   0.000000   0.000000   0.000000  -0.000007
    32  H   -0.000043   0.000119   0.000009   0.000009   0.000007  -0.000033
    33  H    0.000000   0.000004   0.000000   0.000000   0.000000   0.000000
    34  H    0.000000   0.000000   0.000000   0.000000   0.000000   0.000000
    35  H    0.000004   0.000000   0.000000   0.000000   0.000000   0.000000
    36  H    0.001639   0.000009   0.000000   0.000000   0.000000   0.000019
    37  H    0.490434  -0.000419  -0.000001   0.000000   0.000000  -0.000061
    38  H   -0.000419   0.669957  -0.012790  -0.000150   0.000036  -0.000088
    39  H   -0.000001  -0.012790   0.663727  -0.011861  -0.000189   0.000047
    40  H    0.000000  -0.000150  -0.011861   0.663624  -0.011879  -0.000195
    41  H    0.000000   0.000036  -0.000189  -0.011879   0.666130  -0.014234
    42  H   -0.000061  -0.000088   0.000047  -0.000195  -0.014234   0.691187
    43  H    0.000000   0.000000   0.000000   0.000000   0.000000  -0.000002
    44  H    0.000000   0.000000   0.000000   0.000000   0.000000   0.000001
    45  H    0.000000   0.000000   0.000000   0.000000   0.000000   0.000032
    46  H   -0.000018   0.000044   0.000000   0.000000   0.000028  -0.001157
    47  H   -0.001451   0.000652   0.000008   0.000000   0.000010   0.000064
    48  H   -0.000039  -0.000001   0.000000   0.000000   0.000000   0.000001
    49  H    0.000000   0.000000   0.000000   0.000000   0.000000   0.000000
    50  H    0.000000   0.000000   0.000000   0.000000   0.000000   0.000001
              43         44         45         46         47         48
     1  O    0.000008   0.000000   0.000001   0.000009   0.002609  -0.000072
     2  C   -0.000092   0.000020  -0.000250  -0.025800  -0.017557  -0.000258
     3  C    0.000003   0.000000   0.000005   0.002954  -0.001593   0.000023
     4  C    0.000000   0.000001  -0.000008  -0.001037   0.001439   0.000000
     5  C    0.000000   0.000000   0.000083   0.002331  -0.000006   0.000000
     6  C    0.000000   0.000000   0.000049   0.000315   0.000000   0.000000
     7  C    0.000000   0.000000   0.000014   0.000035   0.000000   0.000000
     8  C    0.000000   0.000000   0.000006  -0.000770  -0.000002   0.000000
     9  C    0.000000   0.000001   0.000012  -0.004605  -0.000156   0.000000
    10  O    0.000000   0.000000   0.000000   0.000057   0.024385  -0.000019
    11  C    0.000000   0.000000  -0.000004  -0.000326  -0.004559   0.000003
    12  C    0.000000   0.000000   0.000000   0.000243   0.003732  -0.000001
    13  C    0.000000   0.000000   0.000000  -0.000043   0.000278  -0.000001
    14  C    0.000000   0.000000   0.000000  -0.000030  -0.000017   0.000000
    15  C    0.000000   0.000000   0.000000   0.000370  -0.000352   0.000001
    16  C    0.000001   0.000000  -0.000007   0.003860  -0.001764   0.000007
    17  C    0.011783   0.000230   0.009548  -0.036614   0.000292   0.000005
    18  C   -0.047216   0.008334  -0.000184   0.013692   0.000008  -0.000001
    19  C    0.407254  -0.040910   0.008282  -0.001141  -0.000002   0.000000
    20  C   -0.043145   0.408770  -0.049786   0.010393   0.000000   0.000000
    21  C    0.008737  -0.043177   0.406756  -0.049882   0.000000   0.000000
    22  C   -0.000952   0.008309  -0.031321   0.403463   0.000003   0.000000
    23  C   -0.019129  -0.000261   0.000022  -0.000076  -0.000223   0.000014
    24  O    0.016440  -0.000002   0.000000   0.000001   0.000001   0.000000
    25  H   -0.000078   0.000001  -0.000001   0.000006   0.000095   0.000120
    26  C    0.002430   0.000004  -0.000001   0.000000   0.006699  -0.000555
    27  C   -0.000028   0.000000   0.000004   0.000060  -0.042860   0.008721
    28  C    0.000002   0.000000   0.000000   0.000002   0.400769  -0.032528
    29  C    0.000000   0.000000   0.000000   0.000000  -0.033551   0.402201
    30  C   -0.000001   0.000000   0.000000   0.000000   0.007993  -0.046938
    31  C   -0.000123   0.000000   0.000000  -0.000001  -0.000573   0.008502
    32  H    0.000000   0.000000  -0.000007   0.001831   0.000005   0.000000
    33  H    0.000000   0.000000   0.000001   0.000000   0.000000   0.000000
    34  H    0.000000   0.000000   0.000000   0.000002   0.000000   0.000000
    35  H    0.000000   0.000000   0.000000   0.000007   0.000000   0.000000
    36  H    0.000001   0.000000   0.000003   0.000078  -0.000090   0.000000
    37  H    0.000000   0.000000   0.000000  -0.000018  -0.001451  -0.000039
    38  H    0.000000   0.000000   0.000000   0.000044   0.000652  -0.000001
    39  H    0.000000   0.000000   0.000000   0.000000   0.000008   0.000000
    40  H    0.000000   0.000000   0.000000   0.000000   0.000000   0.000000
    41  H    0.000000   0.000000   0.000000   0.000028   0.000010   0.000000
    42  H   -0.000002   0.000001   0.000032  -0.001157   0.000064   0.000001
    43  H    0.663936  -0.010925  -0.000162   0.000034   0.000000   0.000000
    44  H   -0.010925   0.650438  -0.011409  -0.000182   0.000000   0.000000
    45  H   -0.000162  -0.011409   0.655627  -0.015113   0.000000   0.000000
    46  H    0.000034  -0.000182  -0.015113   0.692970   0.000010   0.000000
    47  H    0.000000   0.000000   0.000000   0.000010   0.655822  -0.014343
    48  H    0.000000   0.000000   0.000000   0.000000  -0.014343   0.654013
    49  H    0.000000   0.000000   0.000000   0.000000  -0.000111  -0.010181
    50  H   -0.000033   0.000000   0.000000   0.000000   0.000053  -0.000190
              49         50
     1  O   -0.000006   0.000026
     2  C   -0.000003  -0.000356
     3  C    0.000000   0.000004
     4  C    0.000000   0.000000
     5  C    0.000000   0.000000
     6  C    0.000000   0.000000
     7  C    0.000000   0.000000
     8  C    0.000000   0.000000
     9  C    0.000000   0.000000
    10  O    0.000000   0.000000
    11  C    0.000000   0.000000
    12  C    0.000000   0.000000
    13  C    0.000000   0.000000
    14  C    0.000000   0.000000
    15  C    0.000000   0.000000
    16  C    0.000000   0.000000
    17  C    0.000000  -0.000088
    18  C    0.000007   0.002270
    19  C    0.000000  -0.000097
    20  C    0.000000  -0.000001
    21  C    0.000000   0.000000
    22  C    0.000000   0.000001
    23  C   -0.000091  -0.003952
    24  O   -0.000008   0.017029
    25  H   -0.000251   0.001940
    26  C    0.008706  -0.056288
    27  C   -0.000921   0.003734
    28  C    0.008945   0.000407
    29  C   -0.044684   0.006598
    30  C    0.408671  -0.023987
    31  C   -0.039906   0.400599
    32  H    0.000000   0.000000
    33  H    0.000000   0.000000
    34  H    0.000000   0.000000
    35  H    0.000000   0.000000
    36  H    0.000000   0.000000
    37  H    0.000000   0.000000
    38  H    0.000000   0.000000
    39  H    0.000000   0.000000
    40  H    0.000000   0.000000
    41  H    0.000000   0.000000
    42  H    0.000000   0.000001
    43  H    0.000000  -0.000033
    44  H    0.000000   0.000000
    45  H    0.000000   0.000000
    46  H    0.000000   0.000000
    47  H   -0.000111   0.000053
    48  H   -0.010181  -0.000190
    49  H    0.656082  -0.012091
    50  H   -0.012091   0.636724
 Mulliken charges:
               1
     1  O   -0.297370
     2  C   -0.066647
     3  C    0.020657
     4  C    0.046876
     5  C   -0.038182
     6  C    0.004619
     7  C   -0.011306
     8  C   -0.005225
     9  C   -0.006986
    10  O   -0.259795
    11  C    0.001861
    12  C    0.014015
    13  C   -0.001279
    14  C   -0.009172
    15  C   -0.001971
    16  C   -0.023229
    17  C    0.156310
    18  C   -0.079556
    19  C    0.028459
    20  C    0.011344
    21  C    0.023121
    22  C   -0.033079
    23  C    0.150787
    24  O   -0.239380
    25  H    0.104325
    26  C   -0.073213
    27  C    0.061847
    28  C    0.018193
    29  C    0.000806
    30  C   -0.012139
    31  C    0.018099
    32  H    0.011383
    33  H    0.021555
    34  H    0.020926
    35  H    0.022305
    36  H    0.005683
    37  H    0.165396
    38  H    0.003961
    39  H    0.023510
    40  H    0.021541
    41  H    0.021348
    42  H    0.006447
    43  H    0.011256
    44  H    0.030757
    45  H    0.027808
    46  H    0.004000
    47  H    0.014280
    48  H    0.031516
    49  H    0.025841
    50  H    0.027697
 Sum of Mulliken charges =   0.00000
 Mulliken charges with hydrogens summed into heavy atoms:
               1
     1  O   -0.297370
     2  C   -0.066647
     3  C    0.020657
     4  C    0.046876
     5  C   -0.026799
     6  C    0.026174
     7  C    0.009620
     8  C    0.017080
     9  C   -0.001303
    10  O   -0.094399
    11  C    0.001861
    12  C    0.017976
    13  C    0.022231
    14  C    0.012368
    15  C    0.019377
    16  C   -0.016782
    17  C    0.156310
    18  C   -0.079556
    19  C    0.039715
    20  C    0.042101
    21  C    0.050928
    22  C   -0.029079
    23  C    0.150787
    24  O   -0.239380
    26  C    0.031111
    27  C    0.061847
    28  C    0.032473
    29  C    0.032323
    30  C    0.013702
    31  C    0.045796
 Electronic spatial extent (au):  <R**2>=           9531.8673
 Charge=              0.0000 electrons
 Dipole moment (field-independent basis, Debye):
    X=             -2.3790    Y=             -0.8740    Z=              3.6964  Tot=              4.4819
 Quadrupole moment (field-independent basis, Debye-Ang):
   XX=           -169.0985   YY=           -157.1945   ZZ=           -164.7360
   XY=            -12.0723   XZ=             -0.5048   YZ=              2.6933
 Traceless Quadrupole moment (field-independent basis, Debye-Ang):
   XX=             -5.4222   YY=              6.4819   ZZ=             -1.0597
   XY=            -12.0723   XZ=             -0.5048   YZ=              2.6933
 Octapole moment (field-independent basis, Debye-Ang**2):
  XXX=            -49.6402  YYY=              0.2492  ZZZ=             11.2403  XYY=            -27.5666
  XXY=            -43.6790  XXZ=              6.6979  XZZ=              7.8537  YZZ=             11.7955
  YYZ=             17.9282  XYZ=             34.0848
 Hexadecapole moment (field-independent basis, Debye-Ang**3):
 XXXX=          -6131.0409 YYYY=          -4361.8698 ZZZZ=          -2000.1501 XXXY=           -287.2511
 XXXZ=            -30.1510 YYYX=             45.5012 YYYZ=             79.7153 ZZZX=            -30.0945
 ZZZY=            -33.7075 XXYY=          -1671.4047 XXZZ=          -1416.4288 YYZZ=           -946.6523
 XXYZ=             39.9906 YYXZ=            -15.5178 ZZXY=              0.8711
 N-N= 2.901690710371D+03 E-N=-8.748730016432D+03  KE= 1.258007223465D+03
 1|1|UNPC-CHSHR-P01|SP|RwB97XD TD-FC|CC-pVDZ|C27H20O3|IBS|11-Jun-2024|0
 ||# td=(nstates=60) wb97xd/cc-pvdz scrf=(cpcm,solvent=n,n-DiMethylForm
 amide) geom=AllCheck guess=read maxdisk=900GB integral(ultrafinegrid)|
 |OS6_conf1||0,1|O,0,2.0327795157,0.5688322013,0.2033274036|C,0,3.21920
 96045,-0.2065729484,-0.0509190811|C,0,3.60666862,-0.1375875217,-1.5682
 708267|C,0,2.9890448143,-1.3136341037,-2.3522147839|C,0,3.7115321647,-
 2.0740334279,-3.2733847894|C,0,3.0900847703,-3.0955928349,-3.995469698
 9|C,0,1.7378785389,-3.3683708962,-3.8068358921|C,0,1.0061840442,-2.607
 9024022,-2.8922640814|C,0,1.6258357725,-1.5887367899,-2.1761619471|O,0
 ,3.0304671617,1.0372371311,-2.1270576315|C,0,5.1174175328,-0.009702800
 7,-1.7524359501|C,0,5.5977324299,0.5764030409,-2.9310278921|C,0,6.9651
 6709,0.7168410261,-3.1510370731|C,0,7.8793034782,0.2779738995,-2.19177
 15914|C,0,7.4109327213,-0.2954659401,-1.0124575214|C,0,6.0393723527,-0
 .4363649694,-0.7932485575|C,0,3.2513351609,-1.5247514234,0.69255137|C,
 0,2.7512632821,-1.5547901976,2.0080771703|C,0,2.6362765444,-2.75720677
 47,2.7090433597|C,0,3.0708796902,-3.9470063631,2.1363523649|C,0,3.6404
 960446,-3.9174180341,0.8653506409|C,0,3.7245565819,-2.7233799134,0.150
 3547658|C,0,2.4677189324,-0.2907680188,2.7402999669|O,0,1.7244212013,-
 0.235551067,3.6984682916|H,0,4.353549552,0.6064933878,2.5604780897|C,0
 ,3.313707285,0.8908436092,2.2898520751|C,0,3.2860334003,1.0320452001,0
 .7771473576|C,0,3.837639364,2.3300385513,0.2881712436|C,0,3.8056205194
 ,3.4085043136,1.0888859816|C,0,3.2559099627,3.3514076096,2.444383055|C
 ,0,2.9941577364,2.1674954852,3.0123934448|H,0,4.775387274,-1.887406399
 5,-3.4230388652|H,0,3.6739097266,-3.6820763881,-4.7072494021|H,0,1.253
 8970212,-4.1698571223,-4.3675901913|H,0,-0.0542297999,-2.8121578731,-2
 .7335443497|H,0,1.0404305497,-1.0106374429,-1.4579166525|H,0,2.2025601
 896,1.1838404682,-1.6413940703|H,0,4.8868624367,0.9270072706,-3.679338
 8784|H,0,7.3190851167,1.1747034968,-4.07654606|H,0,8.9516199666,0.3889
 272645,-2.3618758285|H,0,8.1136041404,-0.6327584587,-0.2486069004|H,0,
 5.7054047536,-0.8780494153,0.145652144|H,0,2.2321900717,-2.7318700979,
 3.7218169639|H,0,2.9892096537,-4.8858682402,2.6853817276|H,0,4.0169988
 915,-4.8350803042,0.4111207816|H,0,4.1593826642,-2.7492465802,-0.84482
 51675|H,0,4.2069461467,2.3947519941,-0.7313798438|H,0,4.1797894764,4.3
 647589824,0.7172185704|H,0,3.0736000694,4.2839632761,2.9807695115|H,0,
 2.587075782,2.082176541,4.0202672477||Version=EM64W-G09RevD.01|State=1
 -A|HF=-1266.2161042|RMSD=3.746e-009|PG=C01 [X(C27H20O3)]||@


 I think that all right-thinking people in this
 country are sick and tired of being told that
 ordinary, decent people are fed up in this country
 with being sick and tired.  I'm certainly not!
 But I'm sick and tired of being told that I am!
                               -- Monty Python
 Job cpu time:       0 days  2 hours 43 minutes  8.0 seconds.
 File lengths (MBytes):  RWF=   4118 Int=      0 D2E=      0 Chk=    567 Scr=      1
 Normal termination of Gaussian 09 at Tue Jun 11 22:13:39 2024.
