 Entering Link 1 = C:\G09W\l1.exe PID=      9104.
  
 Copyright (c) 1988,1990,1992,1993,1995,1998,2003,2009,2013,
            Gaussian, Inc.  All Rights Reserved.
  
 This is part of the Gaussian(R) 09 program.  It is based on
 the Gaussian(R) 03 system (copyright 2003, Gaussian, Inc.),
 the Gaussian(R) 98 system (copyright 1998, Gaussian, Inc.),
 the Gaussian(R) 94 system (copyright 1995, Gaussian, Inc.),
 the Gaussian 92(TM) system (copyright 1992, Gaussian, Inc.),
 the Gaussian 90(TM) system (copyright 1990, Gaussian, Inc.),
 the Gaussian 88(TM) system (copyright 1988, Gaussian, Inc.),
 the Gaussian 86(TM) system (copyright 1986, Carnegie Mellon
 University), and the Gaussian 82(TM) system (copyright 1983,
 Carnegie Mellon University). Gaussian is a federally registered
 trademark of Gaussian, Inc.
  
 This software contains proprietary and confidential information,
 including trade secrets, belonging to Gaussian, Inc.
  
 This software is provided under written license and may be
 used, copied, transmitted, or stored only in accord with that
 written license.
  
 The following legend is applicable only to US Government
 contracts under FAR:
  
                    RESTRICTED RIGHTS LEGEND
  
 Use, reproduction and disclosure by the US Government is
 subject to restrictions as set forth in subparagraphs (a)
 and (c) of the Commercial Computer Software - Restricted
 Rights clause in FAR 52.227-19.
  
 Gaussian, Inc.
 340 Quinnipiac St., Bldg. 40, Wallingford CT 06492
  
  
 ---------------------------------------------------------------
 Warning -- This program may not be used in any manner that
 competes with the business of Gaussian, Inc. or will provide
 assistance to any competitor of Gaussian, Inc.  The licensee
 of this program is prohibited from giving any competitor of
 Gaussian, Inc. access to this program.  By using this program,
 the user acknowledges that Gaussian, Inc. is engaged in the
 business of creating and licensing software in the field of
 computational chemistry and represents and warrants to the
 licensee that it is not a competitor of Gaussian, Inc. and that
 it will not use this program in any manner prohibited above.
 ---------------------------------------------------------------
  

 Cite this work as:
 Gaussian 09, Revision D.01,
 M. J. Frisch, G. W. Trucks, H. B. Schlegel, G. E. Scuseria, 
 M. A. Robb, J. R. Cheeseman, G. Scalmani, V. Barone, B. Mennucci, 
 G. A. Petersson, H. Nakatsuji, M. Caricato, X. Li, H. P. Hratchian, 
 A. F. Izmaylov, J. Bloino, G. Zheng, J. L. Sonnenberg, M. Hada, 
 M. Ehara, K. Toyota, R. Fukuda, J. Hasegawa, M. Ishida, T. Nakajima, 
 Y. Honda, O. Kitao, H. Nakai, T. Vreven, J. A. Montgomery, Jr., 
 J. E. Peralta, F. Ogliaro, M. Bearpark, J. J. Heyd, E. Brothers, 
 K. N. Kudin, V. N. Staroverov, T. Keith, R. Kobayashi, J. Normand, 
 K. Raghavachari, A. Rendell, J. C. Burant, S. S. Iyengar, J. Tomasi, 
 M. Cossi, N. Rega, J. M. Millam, M. Klene, J. E. Knox, J. B. Cross, 
 V. Bakken, C. Adamo, J. Jaramillo, R. Gomperts, R. E. Stratmann, 
 O. Yazyev, A. J. Austin, R. Cammi, C. Pomelli, J. W. Ochterski, 
 R. L. Martin, K. Morokuma, V. G. Zakrzewski, G. A. Voth, 
 P. Salvador, J. J. Dannenberg, S. Dapprich, A. D. Daniels, 
 O. Farkas, J. B. Foresman, J. V. Ortiz, J. Cioslowski, 
 and D. J. Fox, Gaussian, Inc., Wallingford CT, 2013.
 
 ******************************************
 Gaussian 09:  EM64W-G09RevD.01 13-Apr-2013
                05-Jul-2024 
 ******************************************
 %nprocshared=15
 Will use up to   15 processors via shared memory.
 %mem=50GB
 %chk=D:\Yaroslav\pink-mystery\OS1\conf2\OS1_conf2_1100kjm_opt.chk
 ----------------------------------------------------------------------
 # td=(nstates=60) wb97xd/cc-pvdz scrf=(cpcm,solvent=n,n-DiMethylFormam
 ide) geom=AllCheck guess=read maxdisk=900GB integral(ultrafinegrid)
 ----------------------------------------------------------------------
 1/29=7,38=1/1;
 2/12=2,40=1/2;
 3/5=16,11=9,14=-4,16=1,25=1,30=1,70=2101,72=148,74=-58,75=-5,116=-2/1,2,8,3;
 4/5=1/1;
 5/5=2,38=6,53=148/2;
 8/6=1,10=1,108=60/1;
 9/41=60,42=1,70=2/14;
 6/7=2,8=2,9=2,10=2/1;
 99/5=1,9=1/99;
 Structure from the checkpoint file:  "D:\Yaroslav\pink-mystery\OS1\conf2\OS1_conf2_1100kjm_opt.chk"
 ---------
 OS1_conf2
 ---------
 Charge =  0 Multiplicity = 2
 Redundant internal coordinates found in file.
 O,0,1.3687571152,0.788748907,0.7767126535
 C,0,2.5535815858,0.2516014537,0.1687820186
 C,0,2.2568045027,-0.203660713,-1.2689934638
 C,0,1.2218980272,0.395441864,-1.9933738221
 C,0,0.9678802773,0.0243835495,-3.3130879364
 C,0,1.747946291,-0.9531006159,-3.9301886986
 C,0,2.7792478065,-1.5589631986,-3.2135332588
 C,0,3.0287028073,-1.189316851,-1.8922695449
 C,0,3.5535410213,1.4208613194,0.2000674019
 C,0,3.8999765661,1.9589860456,1.4481227366
 C,0,4.7572133397,3.0501087341,1.5370922514
 C,0,5.2716616663,3.6339872897,0.3767676677
 C,0,4.9113647227,3.1221450421,-0.8667929772
 C,0,4.0524881685,2.0241267683,-0.9557586537
 C,0,2.966058245,-0.9648393863,1.0432010291
 C,0,1.9410691665,-1.8056235277,1.5500852919
 C,0,2.2483372623,-2.7945772017,2.5486808969
 C,0,1.195752886,-3.6125613961,3.0820497308
 C,0,-0.0812953081,-3.5177147066,2.6148833831
 C,0,-0.3824353017,-2.5913836505,1.5767004515
 C,0,0.5814076688,-1.7643093398,1.0756637697
 C,0,4.313197993,-1.2730687632,1.3542909213
 C,0,4.6074181769,-2.2471322459,2.3755693534
 C,0,5.9739794931,-2.4935769299,2.7447524319
 C,0,7.0072750878,-1.8880685943,2.0951572417
 C,0,6.7318161829,-1.0028448691,1.0143906764
 C,0,5.4460945624,-0.7044847223,0.6681222335
 C,0,3.5702437208,-2.9606128015,2.9935826559
 C,0,3.874084554,-3.9277738316,4.0921864115
 C,0,4.1761637852,-5.2682816766,3.7908077737
 C,0,4.4579078923,-6.1954201073,4.8506530543
 C,0,4.7256276352,-7.5625742338,4.5058381429
 C,0,4.7358047309,-7.9759407874,3.2045086065
 C,0,4.4737083749,-7.0503404334,2.1518779227
 C,0,4.2000303629,-5.743679088,2.4369812766
 C,0,4.4391988326,-5.7615511103,6.1927140677
 C,0,4.7298486,-6.7223740873,7.2925072657
 C,0,6.1027618384,-7.1675689872,7.4675831672
 C,0,7.1711369063,-6.3617941255,7.0093430748
 C,0,8.4916091952,-6.774031364,7.1415912653
 C,0,8.7919059738,-8.0095898104,7.7205540932
 C,0,7.7507257214,-8.8313951545,8.1591061627
 C,0,6.4281115544,-8.4215852576,8.0357120688
 C,0,3.6220922393,-7.1603018417,8.1265796387
 C,0,2.301480479,-7.1291105062,7.6209918342
 C,0,1.2215371911,-7.5181622488,8.4042177313
 C,0,1.4188226091,-7.9367165482,9.7224754341
 C,0,2.7126624077,-7.9534446463,10.2492273824
 C,0,3.7977570764,-7.5718659696,9.4684481118
 C,0,4.1413923498,-4.4152825,6.4899249214
 C,0,4.1440105172,-3.9242074731,7.8384120089
 C,0,3.8591736211,-2.6182004321,8.1171302129
 C,0,3.554404693,-1.7058748451,7.0642841282
 C,0,3.5549087028,-2.1283420288,5.7661715711
 C,0,3.8524350123,-3.4913900937,5.4291658437
 H,0,1.3765572252,1.7398922757,0.6169789388
 H,0,0.6004464304,1.1544520814,-1.5176733836
 H,0,0.1531475998,0.501957289,-3.8606742499
 H,0,1.549612062,-1.2453340909,-4.9628797922
 H,0,3.3925486105,-2.3310139787,-3.6817958231
 H,0,3.8328650063,-1.6835395065,-1.3452374778
 H,0,3.5027407462,1.503209074,2.3569789078
 H,0,5.0278107497,3.4477056503,2.5168927785
 H,0,5.9473029928,4.4883730619,0.4451373945
 H,0,5.2991752704,3.5764883674,-1.7802497184
 H,0,3.7895657627,1.6285277997,-1.9371670555
 H,0,1.442852183,-4.3346153997,3.8608041063
 H,0,-0.8664233016,-4.1579351593,3.0203607884
 H,0,-1.3953770759,-2.5439345133,1.1729291887
 H,0,0.3165422908,-1.0687129726,0.2864994819
 H,0,6.1723261055,-3.2019439983,3.5495955093
 H,0,8.0391488492,-2.0979293536,2.3807877479
 H,0,7.5561869723,-0.5637209391,0.4500746801
 H,0,5.2853951047,-0.0444115861,-0.1779807135
 H,0,4.9196392769,-8.2776555892,5.3056923238
 H,0,4.9412833645,-9.0205575247,2.9650394938
 H,0,4.4866971184,-7.393334137,1.1160393769
 H,0,3.9910903966,-5.0385712764,1.631540685
 H,0,6.9520976192,-5.3927028987,6.5575294982
 H,0,9.2959424613,-6.1250977717,6.7900843944
 H,0,9.8290480571,-8.333892886,7.8205450318
 H,0,7.971673385,-9.8090484776,8.5916025727
 H,0,5.6298714457,-9.0950549326,8.3498865982
 H,0,2.1322476363,-6.8070707484,6.591969304
 H,0,0.2148636749,-7.495556555,7.9826408627
 H,0,0.5697165475,-8.2384633075,10.3379558161
 H,0,2.8766451466,-8.2560543664,11.2851901266
 H,0,4.7941379541,-7.555929737,9.9117123267
 H,0,4.383260691,-4.6140840603,8.6481246062
 H,0,3.8676151885,-2.2659670148,9.1499326119
 H,0,3.3266406688,-0.6653045116,7.301135131
 H,0,3.3303191941,-1.4276205779,4.9610283181
 Recover connectivity data from disk.
 Stoichiometry    C54H37O(2)
 Framework group  C1[X(C54H37O)]
 Deg. of freedom   270
 Full point group                 C1      NOp   1
 Largest Abelian subgroup         C1      NOp   1
 Largest concise Abelian subgroup C1      NOp   1
                         Standard orientation:                         
 ---------------------------------------------------------------------
 Center     Atomic      Atomic             Coordinates (Angstroms)
 Number     Number       Type             X           Y           Z
 ---------------------------------------------------------------------
      1          8           0        5.056964   -1.305537   -1.633169
      2          6           0        4.962930   -0.384150   -0.535845
      3          6           0        5.761699   -0.905588    0.669396
      4          6           0        6.850227   -1.760216    0.470901
      5          6           0        7.611549   -2.207230    1.549985
      6          6           0        7.295580   -1.804150    2.847091
      7          6           0        6.208800   -0.955536    3.054482
      8          6           0        5.446116   -0.513177    1.974095
      9          6           0        5.558790    0.921499   -1.091091
     10          6           0        4.946259    1.501694   -2.211546
     11          6           0        5.470270    2.652166   -2.790464
     12          6           0        6.627599    3.235137   -2.268298
     13          6           0        7.256390    2.650010   -1.172631
     14          6           0        6.728066    1.495899   -0.589424
     15          6           0        3.452374   -0.296888   -0.182178
     16          6           0        2.683333   -1.489097   -0.222993
     17          6           0        1.248704   -1.424443   -0.137585
     18          6           0        0.479629   -2.634134   -0.219354
     19          6           0        1.083340   -3.852848   -0.310797
     20          6           0        2.504579   -3.933371   -0.324825
     21          6           0        3.269755   -2.803019   -0.294951
     22          6           0        2.810919    0.913039    0.180011
     23          6           0        1.371546    0.971386    0.236364
     24          6           0        0.725390    2.222534    0.522079
     25          6           0        1.441992    3.341555    0.823056
     26          6           0        2.863242    3.270031    0.872916
     27          6           0        3.514411    2.113029    0.557758
     28          6           0        0.607212   -0.186130    0.029781
     29          6           0       -0.885775   -0.111071    0.031677
     30          6           0       -1.599302   -0.249566    1.236144
     31          6           0       -3.033943   -0.186192    1.230875
     32          6           0       -3.727929   -0.368473    2.473790
     33          6           0       -3.049146   -0.575753    3.640290
     34          6           0       -1.623866   -0.620398    3.647003
     35          6           0       -0.925229   -0.466263    2.484378
     36          6           0       -3.727687    0.022047    0.020472
     37          6           0       -5.215301    0.086560    0.013679
     38          6           0       -5.851729    1.270035    0.568737
     39          6           0       -5.148271    2.496384    0.612299
     40          6           0       -5.723331    3.636902    1.159656
     41          6           0       -7.012505    3.590790    1.696205
     42          6           0       -7.716368    2.384066    1.684247
     43          6           0       -7.149073    1.241406    1.131992
     44          6           0       -5.944627   -1.039629   -0.547002
     45          6           0       -5.348125   -2.321687   -0.580467
     46          6           0       -6.012134   -3.410296   -1.132831
     47          6           0       -7.286372   -3.255496   -1.684434
     48          6           0       -7.884654   -1.993029   -1.682384
     49          6           0       -7.228188   -0.901604   -1.125167
     50          6           0       -3.007954    0.166047   -1.183983
     51          6           0       -3.671848    0.412275   -2.432260
     52          6           0       -2.967229    0.555150   -3.593109
     53          6           0       -1.543950    0.465913   -3.588584
     54          6           0       -0.872049    0.246920   -2.420609
     55          6           0       -1.573672    0.094771   -1.177802
     56          1           0        5.802607   -1.022553   -2.175559
     57          1           0        7.100567   -2.088413   -0.538161
     58          1           0        8.455790   -2.876642    1.374310
     59          1           0        7.890013   -2.154094    3.692891
     60          1           0        5.945640   -0.638496    4.065275
     61          1           0        4.592901    0.141123    2.158734
     62          1           0        4.039895    1.050975   -2.620085
     63          1           0        4.973146    3.098846   -3.653401
     64          1           0        7.038184    4.140083   -2.719555
     65          1           0        8.166643    3.091008   -0.762523
     66          1           0        7.226499    1.057004    0.275288
     67          1           0       -0.607765   -2.561772   -0.184484
     68          1           0        0.484169   -4.763695   -0.356315
     69          1           0        2.989396   -4.910778   -0.355828
     70          1           0        4.350024   -2.900993   -0.309392
     71          1           0       -0.364494    2.254521    0.516844
     72          1           0        0.933314    4.279597    1.050463
     73          1           0        3.439621    4.146270    1.174349
     74          1           0        4.596720    2.099343    0.634124
     75          1           0       -4.817927   -0.342986    2.475373
     76          1           0       -3.597144   -0.712455    4.573993
     77          1           0       -1.093568   -0.784953    4.586407
     78          1           0        0.164581   -0.509348    2.489413
     79          1           0       -4.141366    2.548396    0.194340
     80          1           0       -5.160943    4.572465    1.167841
     81          1           0       -7.461674    4.486159    2.129098
     82          1           0       -8.715075    2.329916    2.121657
     83          1           0       -7.701284    0.301590    1.167524
     84          1           0       -4.354196   -2.458418   -0.150762
     85          1           0       -5.531685   -4.390499   -1.133067
     86          1           0       -7.805462   -4.110188   -2.121351
     87          1           0       -8.869991   -1.854938   -2.131521
     88          1           0       -7.697418    0.081976   -1.168800
     89          1           0       -4.759415    0.489075   -2.442509
     90          1           0       -3.492514    0.742652   -4.531053
     91          1           0       -0.993250    0.580020   -4.523714
     92          1           0        0.217071    0.187653   -2.416961
 ---------------------------------------------------------------------
 Rotational constants (GHZ):      0.1064090      0.0277561      0.0267314
 Standard basis: CC-pVDZ (5D, 7F)
 There are  1010 symmetry adapted cartesian basis functions of A   symmetry.
 There are   955 symmetry adapted basis functions of A   symmetry.
   955 basis functions,  2074 primitive gaussians,  1010 cartesian basis functions
   185 alpha electrons      184 beta electrons
       nuclear repulsion energy      6883.4338197487 Hartrees.
 NAtoms=   92 NActive=   92 NUniq=   92 SFac= 1.00D+00 NAtFMM=   60 NAOKFM=T Big=T
 Integral buffers will be    131072 words long.
 Raffenetti 2 integral format.
 Two-electron integral symmetry is turned on.
 Nuclear repulsion after empirical dispersion term =     6883.3377537480 Hartrees.
 ------------------------------------------------------------------------------
 Polarizable Continuum Model (PCM)
 =================================
 Model                : C-PCM.
 Atomic radii         : UFF (Universal Force Field).
 Polarization charges : Total charges.
 Charge compensation  : None.
 Solution method      : On-the-fly selection.
 Cavity type          : Scaled VdW (van der Waals Surface) (Alpha=1.100).
 Cavity algorithm     : GePol (No added spheres)
                        Default sphere list used, NSphG=   92.
                        Lebedev-Laikov grids with approx.  5.0 points / Ang**2.
                        Smoothing algorithm: Karplus/York (Gamma=1.0000).
                        Polarization charges: spherical gaussians, with
                                              point-specific exponents (IZeta= 3).
                        Self-potential: point-specific (ISelfS= 7).
                        Self-field    : sphere-specific E.n sum rule (ISelfD= 2).
 Solvent              : n,n-DiMethylFormamide, Eps=  37.219000 Eps(inf)=   2.046330
 ------------------------------------------------------------------------------
 One-electron integrals computed using PRISM.
 NBasis=   955 RedAO= T EigKep=  5.57D-05  NBF=   955
 NBsUse=   955 1.00D-06 EigRej= -1.00D+00 NBFU=   955
 Initial guess from the checkpoint file:  "D:\Yaroslav\pink-mystery\OS1\conf2\OS1_conf2_1100kjm_opt.chk"
 B after Tr=     0.000000    0.000000    0.000000
         Rot=    1.000000    0.000000    0.000000    0.000000 Ang=   0.00 deg.
 Initial guess <Sx>= 0.0000 <Sy>= 0.0000 <Sz>= 0.5000 <S**2>= 0.7966 S= 0.5230
 Requested convergence on RMS density matrix=1.00D-08 within 128 cycles.
 Requested convergence on MAX density matrix=1.00D-06.
 Requested convergence on             energy=1.00D-06.
 No special actions if energy rises.
 Inv3:  Mode=1 IEnd=   114280752.
 Iteration    1 A*A^-1 deviation from unit magnitude is 6.22D-15 for   3655.
 Iteration    1 A*A^-1 deviation from orthogonality  is 3.68D-15 for   5414   1936.
 Iteration    1 A^-1*A deviation from unit magnitude is 6.22D-15 for   3655.
 Iteration    1 A^-1*A deviation from orthogonality  is 3.24D-15 for   4902   4739.
 Error on total polarization charges =  0.01926
 SCF Done:  E(UwB97XD) =  -2154.70159947     A.U. after    1 cycles
            NFock=  1  Conv=0.35D-08     -V/T= 2.0068
 <Sx>= 0.0000 <Sy>= 0.0000 <Sz>= 0.5000 <S**2>= 0.7966 S= 0.5230
 <L.S>= 0.000000000000E+00
 Annihilation of the first spin contaminant:
 S**2 before annihilation     0.7966,   after     0.7520
 DoSCS=F DFT=T ScalE2(SS,OS)=  1.000000  1.000000
 ExpMin= 1.22D-01 ExpMax= 1.17D+04 ExpMxC= 4.01D+02 IAcc=3 IRadAn=         5 AccDes= 0.00D+00
 HarFok:  IExCor=  205 AccDes= 0.00D+00 IRadAn=         5 IDoV=-2 UseB2=F ITyADJ=14
 ICtDFT= 12500011 ScaDFX=  1.000000  1.000000  1.000000  1.000000
 Range of M.O.s used for correlation:    56   955
 NBasis=   955 NAE=   185 NBE=   184 NFC=    55 NFV=     0
 NROrb=    900 NOA=   130 NOB=   129 NVA=   770 NVB=   771

 **** Warning!!: The largest alpha MO coefficient is  0.21871662D+02


 **** Warning!!: The largest beta MO coefficient is  0.21889230D+02

 Would need an additional        634170700000 words for in-memory AO integral storage.
 NEqPCM:  Using non-equilibrium solvation (IEInf=1, Eps=  37.2190, EpsInf=   2.0463)
 Inv3:  Mode=1 IEnd=   114280752.
 Iteration    1 A*A^-1 deviation from unit magnitude is 6.22D-15 for   3655.
 Iteration    1 A*A^-1 deviation from orthogonality  is 3.68D-15 for   5414   1936.
 Iteration    1 A^-1*A deviation from unit magnitude is 6.22D-15 for   3655.
 Iteration    1 A^-1*A deviation from orthogonality  is 3.24D-15 for   4902   4739.
 Orbital symmetries:
 Alpha Orbitals:
       Occupied  (A) (A) (A) (A) (A) (A) (A) (A) (A) (A) (A) (A)
                 (A) (A) (A) (A) (A) (A) (A) (A) (A) (A) (A) (A)
                 (A) (A) (A) (A) (A) (A) (A) (A) (A) (A) (A) (A)
                 (A) (A) (A) (A) (A) (A) (A) (A) (A) (A) (A) (A)
                 (A) (A) (A) (A) (A) (A) (A) (A) (A) (A) (A) (A)
                 (A) (A) (A) (A) (A) (A) (A) (A) (A) (A) (A) (A)
                 (A) (A) (A) (A) (A) (A) (A) (A) (A) (A) (A) (A)
                 (A) (A) (A) (A) (A) (A) (A) (A) (A) (A) (A) (A)
                 (A) (A) (A) (A) (A) (A) (A) (A) (A) (A) (A) (A)
                 (A) (A) (A) (A) (A) (A) (A) (A) (A) (A) (A) (A)
                 (A) (A) (A) (A) (A) (A) (A) (A) (A) (A) (A) (A)
                 (A) (A) (A) (A) (A) (A) (A) (A) (A) (A) (A) (A)
                 (A) (A) (A) (A) (A) (A) (A) (A) (A) (A) (A) (A)
                 (A) (A) (A) (A) (A) (A) (A) (A) (A) (A) (A) (A)
                 (A) (A) (A) (A) (A) (A) (A) (A) (A) (A) (A) (A)
                 (A) (A) (A) (A) (A)
       Virtual   (A) (A) (A) (A) (A) (A) (A) (A) (A) (A) (A) (A)
                 (A) (A) (A) (A) (A) (A) (A) (A) (A) (A) (A) (A)
                 (A) (A) (A) (A) (A) (A) (A) (A) (A) (A) (A) (A)
                 (A) (A) (A) (A) (A) (A) (A) (A) (A) (A) (A) (A)
                 (A) (A) (A) (A) (A) (A) (A) (A) (A) (A) (A) (A)
                 (A) (A) (A) (A) (A) (A) (A) (A) (A) (A) (A) (A)
                 (A) (A) (A) (A) (A) (A) (A) (A) (A) (A) (A) (A)
                 (A) (A) (A) (A) (A) (A) (A) (A) (A) (A) (A) (A)
                 (A) (A) (A) (A) (A) (A) (A) (A) (A) (A) (A) (A)
                 (A) (A) (A) (A) (A) (A) (A) (A) (A) (A) (A) (A)
                 (A) (A) (A) (A) (A) (A) (A) (A) (A) (A) (A) (A)
                 (A) (A) (A) (A) (A) (A) (A) (A) (A) (A) (A) (A)
                 (A) (A) (A) (A) (A) (A) (A) (A) (A) (A) (A) (A)
                 (A) (A) (A) (A) (A) (A) (A) (A) (A) (A) (A) (A)
                 (A) (A) (A) (A) (A) (A) (A) (A) (A) (A) (A) (A)
                 (A) (A) (A) (A) (A) (A) (A) (A) (A) (A) (A) (A)
                 (A) (A) (A) (A) (A) (A) (A) (A) (A) (A) (A) (A)
                 (A) (A) (A) (A) (A) (A) (A) (A) (A) (A) (A) (A)
                 (A) (A) (A) (A) (A) (A) (A) (A) (A) (A) (A) (A)
                 (A) (A) (A) (A) (A) (A) (A) (A) (A) (A) (A) (A)
                 (A) (A) (A) (A) (A) (A) (A) (A) (A) (A) (A) (A)
                 (A) (A) (A) (A) (A) (A) (A) (A) (A) (A) (A) (A)
                 (A) (A) (A) (A) (A) (A) (A) (A) (A) (A) (A) (A)
                 (A) (A) (A) (A) (A) (A) (A) (A) (A) (A) (A) (A)
                 (A) (A) (A) (A) (A) (A) (A) (A) (A) (A) (A) (A)
                 (A) (A) (A) (A) (A) (A) (A) (A) (A) (A) (A) (A)
                 (A) (A) (A) (A) (A) (A) (A) (A) (A) (A) (A) (A)
                 (A) (A) (A) (A) (A) (A) (A) (A) (A) (A) (A) (A)
                 (A) (A) (A) (A) (A) (A) (A) (A) (A) (A) (A) (A)
                 (A) (A) (A) (A) (A) (A) (A) (A) (A) (A) (A) (A)
                 (A) (A) (A) (A) (A) (A) (A) (A) (A) (A) (A) (A)
                 (A) (A) (A) (A) (A) (A) (A) (A) (A) (A) (A) (A)
                 (A) (A) (A) (A) (A) (A) (A) (A) (A) (A) (A) (A)
                 (A) (A) (A) (A) (A) (A) (A) (A) (A) (A) (A) (A)
                 (A) (A) (A) (A) (A) (A) (A) (A) (A) (A) (A) (A)
                 (A) (A) (A) (A) (A) (A) (A) (A) (A) (A) (A) (A)
                 (A) (A) (A) (A) (A) (A) (A) (A) (A) (A) (A) (A)
                 (A) (A) (A) (A) (A) (A) (A) (A) (A) (A) (A) (A)
                 (A) (A) (A) (A) (A) (A) (A) (A) (A) (A) (A) (A)
                 (A) (A) (A) (A) (A) (A) (A) (A) (A) (A) (A) (A)
                 (A) (A) (A) (A) (A) (A) (A) (A) (A) (A) (A) (A)
                 (A) (A) (A) (A) (A) (A) (A) (A) (A) (A) (A) (A)
                 (A) (A) (A) (A) (A) (A) (A) (A) (A) (A) (A) (A)
                 (A) (A) (A) (A) (A) (A) (A) (A) (A) (A) (A) (A)
                 (A) (A) (A) (A) (A) (A) (A) (A) (A) (A) (A) (A)
                 (A) (A) (A) (A) (A) (A) (A) (A) (A) (A) (A) (A)
                 (A) (A) (A) (A) (A) (A) (A) (A) (A) (A) (A) (A)
                 (A) (A) (A) (A) (A) (A) (A) (A) (A) (A) (A) (A)
                 (A) (A) (A) (A) (A) (A) (A) (A) (A) (A) (A) (A)
                 (A) (A) (A) (A) (A) (A) (A) (A) (A) (A) (A) (A)
                 (A) (A) (A) (A) (A) (A) (A) (A) (A) (A) (A) (A)
                 (A) (A) (A) (A) (A) (A) (A) (A) (A) (A) (A) (A)
                 (A) (A) (A) (A) (A) (A) (A) (A) (A) (A) (A) (A)
                 (A) (A) (A) (A) (A) (A) (A) (A) (A) (A) (A) (A)
                 (A) (A) (A) (A) (A) (A) (A) (A) (A) (A) (A) (A)
                 (A) (A) (A) (A) (A) (A) (A) (A) (A) (A) (A) (A)
                 (A) (A) (A) (A) (A) (A) (A) (A) (A) (A) (A) (A)
                 (A) (A) (A) (A) (A) (A) (A) (A) (A) (A) (A) (A)
                 (A) (A) (A) (A) (A) (A) (A) (A) (A) (A) (A) (A)
                 (A) (A) (A) (A) (A) (A) (A) (A) (A) (A) (A) (A)
                 (A) (A) (A) (A) (A) (A) (A) (A) (A) (A) (A) (A)
                 (A) (A) (A) (A) (A) (A) (A) (A) (A) (A) (A) (A)
                 (A) (A) (A) (A) (A) (A) (A) (A) (A) (A) (A) (A)
                 (A) (A) (A) (A) (A) (A) (A) (A) (A) (A) (A) (A)
                 (A) (A)
 Beta  Orbitals:
       Occupied  (A) (A) (A) (A) (A) (A) (A) (A) (A) (A) (A) (A)
                 (A) (A) (A) (A) (A) (A) (A) (A) (A) (A) (A) (A)
                 (A) (A) (A) (A) (A) (A) (A) (A) (A) (A) (A) (A)
                 (A) (A) (A) (A) (A) (A) (A) (A) (A) (A) (A) (A)
                 (A) (A) (A) (A) (A) (A) (A) (A) (A) (A) (A) (A)
                 (A) (A) (A) (A) (A) (A) (A) (A) (A) (A) (A) (A)
                 (A) (A) (A) (A) (A) (A) (A) (A) (A) (A) (A) (A)
                 (A) (A) (A) (A) (A) (A) (A) (A) (A) (A) (A) (A)
                 (A) (A) (A) (A) (A) (A) (A) (A) (A) (A) (A) (A)
                 (A) (A) (A) (A) (A) (A) (A) (A) (A) (A) (A) (A)
                 (A) (A) (A) (A) (A) (A) (A) (A) (A) (A) (A) (A)
                 (A) (A) (A) (A) (A) (A) (A) (A) (A) (A) (A) (A)
                 (A) (A) (A) (A) (A) (A) (A) (A) (A) (A) (A) (A)
                 (A) (A) (A) (A) (A) (A) (A) (A) (A) (A) (A) (A)
                 (A) (A) (A) (A) (A) (A) (A) (A) (A) (A) (A) (A)
                 (A) (A) (A) (A)
       Virtual   (A) (A) (A) (A) (A) (A) (A) (A) (A) (A) (A) (A)
                 (A) (A) (A) (A) (A) (A) (A) (A) (A) (A) (A) (A)
                 (A) (A) (A) (A) (A) (A) (A) (A) (A) (A) (A) (A)
                 (A) (A) (A) (A) (A) (A) (A) (A) (A) (A) (A) (A)
                 (A) (A) (A) (A) (A) (A) (A) (A) (A) (A) (A) (A)
                 (A) (A) (A) (A) (A) (A) (A) (A) (A) (A) (A) (A)
                 (A) (A) (A) (A) (A) (A) (A) (A) (A) (A) (A) (A)
                 (A) (A) (A) (A) (A) (A) (A) (A) (A) (A) (A) (A)
                 (A) (A) (A) (A) (A) (A) (A) (A) (A) (A) (A) (A)
                 (A) (A) (A) (A) (A) (A) (A) (A) (A) (A) (A) (A)
                 (A) (A) (A) (A) (A) (A) (A) (A) (A) (A) (A) (A)
                 (A) (A) (A) (A) (A) (A) (A) (A) (A) (A) (A) (A)
                 (A) (A) (A) (A) (A) (A) (A) (A) (A) (A) (A) (A)
                 (A) (A) (A) (A) (A) (A) (A) (A) (A) (A) (A) (A)
                 (A) (A) (A) (A) (A) (A) (A) (A) (A) (A) (A) (A)
                 (A) (A) (A) (A) (A) (A) (A) (A) (A) (A) (A) (A)
                 (A) (A) (A) (A) (A) (A) (A) (A) (A) (A) (A) (A)
                 (A) (A) (A) (A) (A) (A) (A) (A) (A) (A) (A) (A)
                 (A) (A) (A) (A) (A) (A) (A) (A) (A) (A) (A) (A)
                 (A) (A) (A) (A) (A) (A) (A) (A) (A) (A) (A) (A)
                 (A) (A) (A) (A) (A) (A) (A) (A) (A) (A) (A) (A)
                 (A) (A) (A) (A) (A) (A) (A) (A) (A) (A) (A) (A)
                 (A) (A) (A) (A) (A) (A) (A) (A) (A) (A) (A) (A)
                 (A) (A) (A) (A) (A) (A) (A) (A) (A) (A) (A) (A)
                 (A) (A) (A) (A) (A) (A) (A) (A) (A) (A) (A) (A)
                 (A) (A) (A) (A) (A) (A) (A) (A) (A) (A) (A) (A)
                 (A) (A) (A) (A) (A) (A) (A) (A) (A) (A) (A) (A)
                 (A) (A) (A) (A) (A) (A) (A) (A) (A) (A) (A) (A)
                 (A) (A) (A) (A) (A) (A) (A) (A) (A) (A) (A) (A)
                 (A) (A) (A) (A) (A) (A) (A) (A) (A) (A) (A) (A)
                 (A) (A) (A) (A) (A) (A) (A) (A) (A) (A) (A) (A)
                 (A) (A) (A) (A) (A) (A) (A) (A) (A) (A) (A) (A)
                 (A) (A) (A) (A) (A) (A) (A) (A) (A) (A) (A) (A)
                 (A) (A) (A) (A) (A) (A) (A) (A) (A) (A) (A) (A)
                 (A) (A) (A) (A) (A) (A) (A) (A) (A) (A) (A) (A)
                 (A) (A) (A) (A) (A) (A) (A) (A) (A) (A) (A) (A)
                 (A) (A) (A) (A) (A) (A) (A) (A) (A) (A) (A) (A)
                 (A) (A) (A) (A) (A) (A) (A) (A) (A) (A) (A) (A)
                 (A) (A) (A) (A) (A) (A) (A) (A) (A) (A) (A) (A)
                 (A) (A) (A) (A) (A) (A) (A) (A) (A) (A) (A) (A)
                 (A) (A) (A) (A) (A) (A) (A) (A) (A) (A) (A) (A)
                 (A) (A) (A) (A) (A) (A) (A) (A) (A) (A) (A) (A)
                 (A) (A) (A) (A) (A) (A) (A) (A) (A) (A) (A) (A)
                 (A) (A) (A) (A) (A) (A) (A) (A) (A) (A) (A) (A)
                 (A) (A) (A) (A) (A) (A) (A) (A) (A) (A) (A) (A)
                 (A) (A) (A) (A) (A) (A) (A) (A) (A) (A) (A) (A)
                 (A) (A) (A) (A) (A) (A) (A) (A) (A) (A) (A) (A)
                 (A) (A) (A) (A) (A) (A) (A) (A) (A) (A) (A) (A)
                 (A) (A) (A) (A) (A) (A) (A) (A) (A) (A) (A) (A)
                 (A) (A) (A) (A) (A) (A) (A) (A) (A) (A) (A) (A)
                 (A) (A) (A) (A) (A) (A) (A) (A) (A) (A) (A) (A)
                 (A) (A) (A) (A) (A) (A) (A) (A) (A) (A) (A) (A)
                 (A) (A) (A) (A) (A) (A) (A) (A) (A) (A) (A) (A)
                 (A) (A) (A) (A) (A) (A) (A) (A) (A) (A) (A) (A)
                 (A) (A) (A) (A) (A) (A) (A) (A) (A) (A) (A) (A)
                 (A) (A) (A) (A) (A) (A) (A) (A) (A) (A) (A) (A)
                 (A) (A) (A) (A) (A) (A) (A) (A) (A) (A) (A) (A)
                 (A) (A) (A) (A) (A) (A) (A) (A) (A) (A) (A) (A)
                 (A) (A) (A) (A) (A) (A) (A) (A) (A) (A) (A) (A)
                 (A) (A) (A) (A) (A) (A) (A) (A) (A) (A) (A) (A)
                 (A) (A) (A) (A) (A) (A) (A) (A) (A) (A) (A) (A)
                 (A) (A) (A) (A) (A) (A) (A) (A) (A) (A) (A) (A)
                 (A) (A) (A) (A) (A) (A) (A) (A) (A) (A) (A) (A)
                 (A) (A) (A) (A) (A) (A) (A) (A) (A) (A) (A) (A)
                 (A) (A) (A)
   240 initial guesses have been made.
 Convergence on wavefunction:    0.001000000000000
 Iteration     1 Dimension   240 NMult     0 NNew    240
 CISAX will form   120 AO SS matrices at one time.
 New state      1 was old state     10
 New state      2 was old state      6
 New state      3 was old state      1
 New state      5 was old state     18
 New state      6 was old state     31
 New state      7 was old state     41
 New state      8 was old state      7
 New state      9 was old state      2
 New state     10 was old state      9
 New state     11 was old state    118
 New state     14 was old state     26
 New state     15 was old state      5
 New state     16 was old state      8
 New state     17 was old state     27
 New state     18 was old state     24
 New state     19 was old state     11
 New state     20 was old state     29
 New state     21 was old state     37
 New state     22 was old state     20
 New state     23 was old state     93
 New state     24 was old state     30
 No map to state     25
 New state     26 was old state      3
 New state     27 was old state     39
 New state     28 was old state     16
 New state     29 was old state     35
 New state     30 was old state    176
 New state     31 was old state    138
 New state     32 was old state    134
 New state     33 was old state     43
 New state     34 was old state     62
 New state     35 was old state     54
 New state     36 was old state    185
 New state     37 was old state     38
 New state     38 was old state     36
 New state     39 was old state    181
 New state     40 was old state     23
 New state     41 was old state     15
 New state     42 was old state     52
 New state     43 was old state     28
 New state     44 was old state     48
 New state     45 was old state     34
 New state     47 was old state     49
 New state     48 was old state     56
 New state     49 was old state     57
 New state     50 was old state     73
 New state     51 was old state    102
 New state     52 was old state     58
 New state     53 was old state     85
 New state     54 was old state     86
 New state     55 was old state     51
 New state     56 was old state     60
 New state     57 was old state     71
 New state     58 was old state     72
 New state     59 was old state     88
 New state     60 was old state     67
 Iteration     2 Dimension   360 NMult   240 NNew    120
 New state      1 was old state      2
 New state      2 was old state      1
 New state      6 was old state      9
 New state      7 was old state     11
 New state      9 was old state     19
 New state     10 was old state      6
 New state     11 was old state      7
 New state     12 was old state     13
 New state     13 was old state     17
 New state     14 was old state     18
 New state     15 was old state     14
 New state     16 was old state     12
 New state     17 was old state     10
 New state     18 was old state     21
 New state     19 was old state     23
 New state     21 was old state     39
 New state     22 was old state     15
 New state     23 was old state     22
 New state     24 was old state     16
 New state     25 was old state     30
 New state     26 was old state     36
 New state     27 was old state     24
 New state     28 was old state     27
 New state     29 was old state     31
 New state     30 was old state     32
 New state     31 was old state     28
 New state     32 was old state     25
 New state     33 was old state     26
 New state     34 was old state     29
 New state     35 was old state     33
 New state     36 was old state     34
 New state     37 was old state     60
 New state     38 was old state     57
 New state     39 was old state     37
 New state     40 was old state     35
 New state     41 was old state     55
 New state     42 was old state     41
 New state     43 was old state     42
 New state     44 was old state     51
 New state     45 was old state     40
 New state     46 was old state     38
 New state     47 was old state     49
 New state     48 was old state     44
 New state     49 was old state     47
 New state     50 was old state     48
 New state     51 was old state     43
 New state     52 was old state     46
 New state     53 was old state     54
 New state     54 was old state     56
 New state     55 was old state     53
 New state     56 was old state     50
 New state     57 was old state     45
 New state     58 was old state     52
 New state     59 was old state     58
 New state     60 was old state     59
 Iteration     3 Dimension   480 NMult   360 NNew    120
 New state     13 was old state     21
 New state     15 was old state     13
 New state     16 was old state     15
 New state     17 was old state     16
 New state     18 was old state     20
 New state     19 was old state     17
 New state     20 was old state     18
 New state     21 was old state     19
 New state     24 was old state     25
 New state     25 was old state     24
 New state     26 was old state     37
 New state     27 was old state     26
 New state     28 was old state     27
 New state     29 was old state     28
 New state     30 was old state     29
 New state     31 was old state     30
 New state     32 was old state     31
 New state     33 was old state     32
 New state     35 was old state     33
 New state     36 was old state     35
 New state     37 was old state     39
 New state     38 was old state     36
 New state     39 was old state     38
 New state     40 was old state     50
 New state     41 was old state     40
 New state     42 was old state     41
 New state     43 was old state     42
 New state     44 was old state     43
 New state     45 was old state     44
 New state     46 was old state     48
 New state     47 was old state     45
 New state     48 was old state     57
 New state     49 was old state     46
 New state     50 was old state     47
 New state     51 was old state     55
 New state     52 was old state     56
 New state     53 was old state     54
 New state     54 was old state     49
 No map to state     55
 New state     56 was old state     51
 New state     57 was old state     52
 New state     58 was old state     53
 New state     60 was old state     58
 Iteration     4 Dimension   600 NMult   480 NNew    120
 New state     15 was old state     18
 New state     16 was old state     15
 New state     17 was old state     26
 New state     18 was old state     16
 New state     19 was old state     17
 New state     20 was old state     19
 New state     21 was old state     20
 New state     22 was old state     21
 New state     24 was old state     22
 New state     25 was old state     24
 New state     26 was old state     25
 New state     33 was old state     43
 New state     34 was old state     33
 New state     35 was old state     51
 New state     36 was old state     34
 New state     37 was old state     35
 New state     38 was old state     37
 New state     39 was old state     48
 New state     40 was old state     36
 New state     41 was old state     40
 New state     42 was old state     38
 New state     43 was old state     53
 New state     44 was old state     39
 New state     45 was old state     41
 New state     46 was old state     42
 New state     47 was old state     44
 New state     48 was old state     45
 New state     49 was old state     46
 New state     50 was old state     47
 New state     51 was old state     54
 New state     52 was old state     49
 New state     53 was old state     50
 New state     54 was old state     52
 New state     56 was old state     57
 New state     57 was old state     56
 New state     59 was old state     60
 No map to state     60
 Iteration     5 Dimension   720 NMult   600 NNew    120
 New state     12 was old state     13
 New state     13 was old state     12
 New state     15 was old state     17
 New state     16 was old state     15
 New state     17 was old state     16
 New state     30 was old state     33
 New state     31 was old state     30
 New state     32 was old state     35
 New state     33 was old state     31
 New state     34 was old state     32
 New state     35 was old state     34
 New state     40 was old state     43
 New state     42 was old state     40
 New state     43 was old state     42
 New state     45 was old state     48
 New state     46 was old state     45
 New state     48 was old state     46
 New state     49 was old state     56
 No map to state     50
 New state     51 was old state     49
 New state     52 was old state     51
 New state     53 was old state     50
 No map to state     54
 New state     55 was old state     52
 New state     56 was old state     53
 New state     57 was old state     54
 New state     58 was old state     55
 New state     59 was old state     58
 New state     60 was old state     59
 Iteration     6 Dimension   830 NMult   720 NNew    110
 New state     31 was old state     32
 New state     32 was old state     31
 New state     41 was old state     45
 New state     42 was old state     41
 New state     43 was old state     42
 New state     44 was old state     49
 New state     45 was old state     43
 New state     46 was old state     44
 New state     47 was old state     52
 New state     48 was old state     46
 New state     49 was old state     47
 New state     50 was old state     48
 New state     51 was old state     54
 New state     52 was old state     50
 New state     53 was old state     51
 New state     54 was old state     53
 No map to state     55
 New state     56 was old state     55
 New state     57 was old state     56
 New state     58 was old state     57
 New state     60 was old state     58
 Iteration     7 Dimension   914 NMult   830 NNew     84
 New state     40 was old state     41
 New state     41 was old state     40
 New state     43 was old state     44
 New state     44 was old state     43
 New state     49 was old state     51
 New state     51 was old state     49
 New state     56 was old state     57
 New state     57 was old state     56
 New state     58 was old state     59
 New state     59 was old state     58
 Davidson failed to converge within maximum sub-space dimensions.
  Restart with updated initial guess:
 Iteration     1 Dimension   174 NMult   914 NNew    174
 Iteration     2 Dimension   294 NMult  1088 NNew    120
 Iteration     3 Dimension   320 NMult  1208 NNew     26
 Iteration     4 Dimension   328 NMult  1234 NNew      8
 Iteration     5 Dimension   330 NMult  1242 NNew      2
 Iteration     6 Dimension   332 NMult  1244 NNew      2
 Iteration     7 Dimension   334 NMult  1246 NNew      2
 Iteration     8 Dimension   336 NMult  1248 NNew      2
 Iteration     9 Dimension   338 NMult  1250 NNew      2
 Convergence on energies, max DE= 8.36D-06.
 ***********************************************************************
 Excited states from <AA,BB:AA,BB> singles matrix:
 ***********************************************************************
 
 ExtSpn:  IState=     1 X2= 1.128 Y2= 0.128 X2-Y2-1=-1.44D-15
          S2Grnd=  0.797 Ra=  0.498 Rb=  0.497 T=  0.995 S2Ext=  1.990 S2=  2.786
 ExtSpn:  IState=     2 X2= 1.118 Y2= 0.118 X2-Y2-1= 1.78D-15
          S2Grnd=  0.797 Ra=  0.465 Rb=  0.457 T=  0.922 S2Ext=  1.845 S2=  2.641
 ExtSpn:  IState=     3 X2= 1.004 Y2= 0.004 X2-Y2-1= 5.55D-15
          S2Grnd=  0.797 Ra=  0.037 Rb=  0.109 T= -0.081 S2Ext=  0.065 S2=  0.861
 ExtSpn:  IState=     4 X2= 1.004 Y2= 0.004 X2-Y2-1= 6.66D-15
          S2Grnd=  0.797 Ra=  0.096 Rb=  0.027 T=  0.042 S2Ext=  0.165 S2=  0.962
 ExtSpn:  IState=     5 X2= 1.031 Y2= 0.031 X2-Y2-1=-8.44D-15
          S2Grnd=  0.797 Ra=  0.113 Rb=  0.109 T=  0.211 S2Ext=  0.433 S2=  1.230
 ExtSpn:  IState=     6 X2= 1.034 Y2= 0.034 X2-Y2-1= 3.11D-15
          S2Grnd=  0.797 Ra=  0.500 Rb=  0.500 T=  1.000 S2Ext=  2.000 S2=  2.797
 ExtSpn:  IState=     7 X2= 1.034 Y2= 0.034 X2-Y2-1= 1.27D-14
          S2Grnd=  0.797 Ra=  0.492 Rb=  0.495 T=  0.987 S2Ext=  1.973 S2=  2.770
 ExtSpn:  IState=     8 X2= 1.013 Y2= 0.013 X2-Y2-1=-6.00D-15
          S2Grnd=  0.797 Ra=  0.470 Rb=  0.474 T= -0.942 S2Ext=  0.002 S2=  0.799
 ExtSpn:  IState=     9 X2= 1.015 Y2= 0.015 X2-Y2-1=-2.33D-15
          S2Grnd=  0.797 Ra=  0.446 Rb=  0.451 T= -0.872 S2Ext=  0.026 S2=  0.823
 ExtSpn:  IState=    10 X2= 1.007 Y2= 0.007 X2-Y2-1= 8.88D-16
          S2Grnd=  0.797 Ra=  0.500 Rb=  0.499 T=  0.999 S2Ext=  1.998 S2=  2.795
 ExtSpn:  IState=    11 X2= 1.006 Y2= 0.006 X2-Y2-1=-1.08D-14
          S2Grnd=  0.797 Ra=  0.419 Rb=  0.463 T=  0.835 S2Ext=  1.717 S2=  2.514
 ExtSpn:  IState=    12 X2= 1.056 Y2= 0.056 X2-Y2-1=-1.22D-15
          S2Grnd=  0.797 Ra=  0.500 Rb=  0.500 T=  1.000 S2Ext=  2.000 S2=  2.797
 ExtSpn:  IState=    13 X2= 1.005 Y2= 0.005 X2-Y2-1= 1.55D-15
          S2Grnd=  0.797 Ra=  0.167 Rb=  0.140 T=  0.227 S2Ext=  0.534 S2=  1.331
 ExtSpn:  IState=    14 X2= 1.029 Y2= 0.029 X2-Y2-1=-1.33D-15
          S2Grnd=  0.797 Ra=  0.222 Rb=  0.235 T=  0.384 S2Ext=  0.841 S2=  1.638
 ExtSpn:  IState=    15 X2= 1.056 Y2= 0.056 X2-Y2-1=-1.22D-15
          S2Grnd=  0.797 Ra=  0.500 Rb=  0.500 T=  1.000 S2Ext=  2.000 S2=  2.797
 ExtSpn:  IState=    16 X2= 1.011 Y2= 0.011 X2-Y2-1= 2.66D-15
          S2Grnd=  0.797 Ra=  0.123 Rb=  0.146 T=  0.174 S2Ext=  0.442 S2=  1.239
 ExtSpn:  IState=    17 X2= 1.009 Y2= 0.009 X2-Y2-1=-1.19D-14
          S2Grnd=  0.797 Ra=  0.473 Rb=  0.335 T=  0.776 S2Ext=  1.584 S2=  2.381
 ExtSpn:  IState=    18 X2= 1.010 Y2= 0.010 X2-Y2-1= 5.33D-15
          S2Grnd=  0.797 Ra=  0.506 Rb=  0.491 T=  0.992 S2Ext=  1.990 S2=  2.786
 ExtSpn:  IState=    19 X2= 1.001 Y2= 0.001 X2-Y2-1= 3.33D-15
          S2Grnd=  0.797 Ra=  0.747 Rb=  0.035 T=  0.042 S2Ext=  0.824 S2=  1.621
 ExtSpn:  IState=    20 X2= 1.000 Y2= 0.000 X2-Y2-1=-1.22D-15
          S2Grnd=  0.797 Ra=  0.018 Rb=  0.832 T=  0.062 S2Ext=  0.913 S2=  1.709
 ExtSpn:  IState=    21 X2= 1.005 Y2= 0.005 X2-Y2-1=-4.44D-16
          S2Grnd=  0.797 Ra=  0.224 Rb=  0.203 T= -0.356 S2Ext=  0.070 S2=  0.866
 ExtSpn:  IState=    22 X2= 1.006 Y2= 0.006 X2-Y2-1=-8.77D-15
          S2Grnd=  0.797 Ra=  0.494 Rb=  0.503 T= -0.934 S2Ext=  0.063 S2=  0.860
 ExtSpn:  IState=    23 X2= 1.005 Y2= 0.005 X2-Y2-1= 6.22D-15
          S2Grnd=  0.797 Ra=  0.298 Rb=  0.293 T= -0.324 S2Ext=  0.267 S2=  1.063
 ExtSpn:  IState=    24 X2= 1.001 Y2= 0.001 X2-Y2-1=-7.55D-15
          S2Grnd=  0.797 Ra=  0.858 Rb=  0.066 T= -0.124 S2Ext=  0.800 S2=  1.597
 ExtSpn:  IState=    25 X2= 1.023 Y2= 0.023 X2-Y2-1= 1.69D-14
          S2Grnd=  0.797 Ra=  0.498 Rb=  0.502 T=  0.991 S2Ext=  1.991 S2=  2.788
 ExtSpn:  IState=    26 X2= 1.001 Y2= 0.001 X2-Y2-1= 6.66D-16
          S2Grnd=  0.797 Ra=  0.021 Rb=  0.976 T= -0.078 S2Ext=  0.919 S2=  1.716
 ExtSpn:  IState=    27 X2= 1.021 Y2= 0.021 X2-Y2-1=-2.89D-15
          S2Grnd=  0.797 Ra=  0.478 Rb=  0.484 T=  0.956 S2Ext=  1.918 S2=  2.715
 ExtSpn:  IState=    28 X2= 1.006 Y2= 0.006 X2-Y2-1=-4.22D-15
          S2Grnd=  0.797 Ra=  0.114 Rb=  0.105 T=  0.083 S2Ext=  0.303 S2=  1.099
 ExtSpn:  IState=    29 X2= 1.007 Y2= 0.007 X2-Y2-1=-8.88D-16
          S2Grnd=  0.797 Ra=  0.112 Rb=  0.079 T=  0.184 S2Ext=  0.375 S2=  1.172
 ExtSpn:  IState=    30 X2= 1.019 Y2= 0.019 X2-Y2-1= 2.22D-16
          S2Grnd=  0.797 Ra=  0.428 Rb=  0.444 T=  0.871 S2Ext=  1.743 S2=  2.540
 ExtSpn:  IState=    31 X2= 1.012 Y2= 0.012 X2-Y2-1= 2.66D-14
          S2Grnd=  0.797 Ra=  0.363 Rb=  0.354 T=  0.716 S2Ext=  1.433 S2=  2.230
 ExtSpn:  IState=    32 X2= 1.017 Y2= 0.017 X2-Y2-1=-3.66D-15
          S2Grnd=  0.797 Ra=  0.500 Rb=  0.500 T=  1.000 S2Ext=  2.000 S2=  2.796
 ExtSpn:  IState=    33 X2= 1.016 Y2= 0.016 X2-Y2-1= 4.22D-15
          S2Grnd=  0.797 Ra=  0.493 Rb=  0.496 T=  0.988 S2Ext=  1.978 S2=  2.775
 ExtSpn:  IState=    34 X2= 1.003 Y2= 0.003 X2-Y2-1= 1.11D-15
          S2Grnd=  0.797 Ra=  0.132 Rb=  0.066 T=  0.007 S2Ext=  0.205 S2=  1.001
 ExtSpn:  IState=    35 X2= 1.000 Y2= 0.000 X2-Y2-1=-7.77D-15
          S2Grnd=  0.797 Ra=  0.262 Rb=  0.001 T= -0.002 S2Ext=  0.261 S2=  1.058
 ExtSpn:  IState=    36 X2= 1.002 Y2= 0.002 X2-Y2-1=-1.02D-14
          S2Grnd=  0.797 Ra=  0.062 Rb=  0.101 T= -0.019 S2Ext=  0.144 S2=  0.941
 ExtSpn:  IState=    37 X2= 1.003 Y2= 0.003 X2-Y2-1= 4.88D-15
          S2Grnd=  0.797 Ra=  0.234 Rb=  0.329 T=  0.466 S2Ext=  1.029 S2=  1.826
 ExtSpn:  IState=    38 X2= 1.003 Y2= 0.003 X2-Y2-1=-2.89D-15
          S2Grnd=  0.797 Ra=  0.269 Rb=  0.352 T=  0.536 S2Ext=  1.156 S2=  1.953
 ExtSpn:  IState=    39 X2= 1.006 Y2= 0.006 X2-Y2-1=-5.77D-15
          S2Grnd=  0.797 Ra=  0.498 Rb=  0.499 T=  0.996 S2Ext=  1.993 S2=  2.789
 ExtSpn:  IState=    40 X2= 1.008 Y2= 0.008 X2-Y2-1=-1.21D-14
          S2Grnd=  0.797 Ra=  0.491 Rb=  0.499 T=  0.989 S2Ext=  1.978 S2=  2.775
 ExtSpn:  IState=    41 X2= 1.004 Y2= 0.004 X2-Y2-1= 9.77D-15
          S2Grnd=  0.797 Ra=  0.500 Rb=  0.500 T=  1.000 S2Ext=  2.000 S2=  2.796
 ExtSpn:  IState=    42 X2= 1.004 Y2= 0.004 X2-Y2-1=-6.88D-15
          S2Grnd=  0.797 Ra=  0.500 Rb=  0.500 T=  1.000 S2Ext=  2.000 S2=  2.797
 ExtSpn:  IState=    43 X2= 1.004 Y2= 0.004 X2-Y2-1=-1.02D-14
          S2Grnd=  0.797 Ra=  0.500 Rb=  0.500 T=  1.000 S2Ext=  2.000 S2=  2.797
 ExtSpn:  IState=    44 X2= 1.007 Y2= 0.007 X2-Y2-1=-5.55D-16
          S2Grnd=  0.797 Ra=  0.499 Rb=  0.501 T= -1.000 S2Ext=  0.000 S2=  0.797
 ExtSpn:  IState=    45 X2= 1.006 Y2= 0.006 X2-Y2-1=-7.22D-15
          S2Grnd=  0.797 Ra=  0.322 Rb=  0.430 T= -0.616 S2Ext=  0.135 S2=  0.932
 ExtSpn:  IState=    46 X2= 1.016 Y2= 0.016 X2-Y2-1= 8.44D-15
          S2Grnd=  0.797 Ra=  0.499 Rb=  0.500 T= -0.999 S2Ext=  0.000 S2=  0.797
 ExtSpn:  IState=    47 X2= 1.006 Y2= 0.006 X2-Y2-1= 4.22D-15
          S2Grnd=  0.797 Ra=  0.500 Rb=  0.500 T=  1.000 S2Ext=  2.000 S2=  2.797
 ExtSpn:  IState=    48 X2= 1.012 Y2= 0.012 X2-Y2-1=-1.37D-14
          S2Grnd=  0.797 Ra=  0.467 Rb=  0.400 T= -0.722 S2Ext=  0.145 S2=  0.942
 ExtSpn:  IState=    49 X2= 1.005 Y2= 0.005 X2-Y2-1=-1.58D-14
          S2Grnd=  0.797 Ra=  0.501 Rb=  0.499 T=  1.000 S2Ext=  2.000 S2=  2.796
 ExtSpn:  IState=    50 X2= 1.002 Y2= 0.002 X2-Y2-1=-8.77D-15
          S2Grnd=  0.797 Ra=  0.548 Rb=  0.072 T= -0.205 S2Ext=  0.415 S2=  1.212
 ExtSpn:  IState=    51 X2= 1.002 Y2= 0.002 X2-Y2-1= 3.11D-15
          S2Grnd=  0.797 Ra=  0.508 Rb=  0.492 T=  0.998 S2Ext=  1.997 S2=  2.794
 ExtSpn:  IState=    52 X2= 1.006 Y2= 0.006 X2-Y2-1= 1.58D-14
          S2Grnd=  0.797 Ra=  0.106 Rb=  0.058 T= -0.018 S2Ext=  0.146 S2=  0.942
 ExtSpn:  IState=    53 X2= 1.004 Y2= 0.004 X2-Y2-1= 5.77D-15
          S2Grnd=  0.797 Ra=  0.197 Rb=  0.455 T= -0.076 S2Ext=  0.575 S2=  1.372
 ExtSpn:  IState=    54 X2= 1.002 Y2= 0.002 X2-Y2-1= 4.44D-15
          S2Grnd=  0.797 Ra=  0.508 Rb=  0.492 T= -0.976 S2Ext=  0.024 S2=  0.820
 ExtSpn:  IState=    55 X2= 1.001 Y2= 0.001 X2-Y2-1=-4.22D-15
          S2Grnd=  0.797 Ra=  0.551 Rb=  0.448 T=  0.955 S2Ext=  1.955 S2=  2.751
 ExtSpn:  IState=    56 X2= 1.002 Y2= 0.002 X2-Y2-1=-2.44D-15
          S2Grnd=  0.797 Ra=  0.437 Rb=  0.558 T= -0.948 S2Ext=  0.047 S2=  0.843
 ExtSpn:  IState=    57 X2= 1.000 Y2= 0.000 X2-Y2-1= 2.00D-15
          S2Grnd=  0.797 Ra=  0.036 Rb=  0.786 T=  0.135 S2Ext=  0.956 S2=  1.753
 ExtSpn:  IState=    58 X2= 1.003 Y2= 0.003 X2-Y2-1=-6.44D-15
          S2Grnd=  0.797 Ra=  0.500 Rb=  0.500 T= -0.998 S2Ext=  0.001 S2=  0.798
 ExtSpn:  IState=    59 X2= 1.001 Y2= 0.001 X2-Y2-1=-1.44D-15
          S2Grnd=  0.797 Ra=  0.080 Rb=  0.657 T=  0.170 S2Ext=  0.907 S2=  1.704
 ExtSpn:  IState=    60 X2= 1.001 Y2= 0.001 X2-Y2-1= 9.33D-15
          S2Grnd=  0.797 Ra=  0.591 Rb=  0.212 T=  0.212 S2Ext=  1.015 S2=  1.812
 Ground to excited state transition densities written to RWF  633
 Ground to excited state transition electric dipole moments (Au):
       state          X           Y           Z        Dip. S.      Osc.
         1        -0.0115      0.0005     -0.0001      0.0001      0.0000
         2        -0.0451      0.0019     -0.0005      0.0020      0.0001
         3         1.5464     -0.0571      0.0088      2.3947      0.1697
         4        -0.7976      0.0276     -0.0023      0.6370      0.0480
         5         0.0135     -0.0082     -0.0422      0.0020      0.0002
         6         0.0004     -0.0003      0.0001      0.0000      0.0000
         7         0.0034      0.0606      0.0230      0.0042      0.0003
         8         2.1818     -0.0202     -0.0213      4.7613      0.3922
         9         0.7151     -0.0544      0.0249      0.5150      0.0449
        10         0.0002      0.0013      0.0019      0.0000      0.0000
        11         0.0015      0.0268      0.0320      0.0017      0.0002
        12         0.0000     -0.0001     -0.0001      0.0000      0.0000
        13        -0.0179     -0.4265     -0.3700      0.3191      0.0288
        14         0.0721     -0.0082     -0.0019      0.0053      0.0005
        15         0.0000      0.0000      0.0000      0.0000      0.0000
        16         0.1220     -0.0108     -0.0085      0.0151      0.0014
        17         0.0002     -0.0656      0.1046      0.0152      0.0014
        18        -0.0004     -0.0011      0.0064      0.0000      0.0000
        19         0.0020     -0.0291     -0.0005      0.0009      0.0001
        20         0.0172     -0.0010     -0.0022      0.0003      0.0000
        21        -0.0615     -1.5245     -0.8118      2.9869      0.2912
        22        -0.0181     -0.1243     -0.0038      0.0158      0.0015
        23         0.0539      1.1704      0.6091      1.7437      0.1710
        24        -0.0009     -0.5147     -0.2620      0.3336      0.0327
        25         0.0029      0.0130      0.0040      0.0002      0.0000
        26         0.0021      0.0154     -0.0033      0.0003      0.0000
        27         0.0152     -0.0019     -0.0013      0.0002      0.0000
        28         0.0386      0.7543     -0.0501      0.5729      0.0588
        29         0.5513     -0.0274      0.0057      0.3048      0.0318
        30         0.0007      0.0070      0.0246      0.0007      0.0001
        31        -0.0967      0.0060     -0.0011      0.0094      0.0010
        32         0.0062     -0.0011      0.0035      0.0001      0.0000
        33        -0.0524      0.0084     -0.0269      0.0035      0.0004
        34         0.0126      0.1020     -0.9142      0.8463      0.0957
        35         0.0064      0.0082      0.0786      0.0063      0.0007
        36        -0.0109     -0.3384      0.5675      0.4366      0.0505
        37         0.0201      0.0137     -0.0469      0.0028      0.0003
        38         0.0162      0.0091     -0.0404      0.0020      0.0002
        39         0.0000     -0.0003     -0.0032      0.0000      0.0000
        40        -0.0346      0.0050     -0.0003      0.0012      0.0001
        41        -0.0022      0.0003      0.0005      0.0000      0.0000
        42        -0.0003     -0.0004      0.0004      0.0000      0.0000
        43        -0.0001      0.0005      0.0003      0.0000      0.0000
        44        -0.1814     -0.8390     -0.0974      0.7464      0.0886
        45         0.0121      0.0609      0.1900      0.0399      0.0048
        46        -0.1929     -3.4889     -0.5404     12.5017      1.5387
        47        -0.0001     -0.0019     -0.0105      0.0001      0.0000
        48         0.0391      0.4375     -3.0818      9.6903      1.2099
        49         0.0002     -0.0081      0.0426      0.0019      0.0002
        50        -0.0304     -0.0881      1.3244      1.7627      0.2225
        51        -0.0027      0.0089      0.0172      0.0004      0.0000
        52         1.3353     -0.0520      0.0341      1.7868      0.2279
        53         0.0144      0.2309     -0.6323      0.4533      0.0581
        54        -0.1142      0.1198     -0.1638      0.0542      0.0071
        55        -0.0275      0.0652     -0.0169      0.0053      0.0007
        56        -0.1347      0.4334     -0.1053      0.2171      0.0285
        57         0.0315     -0.1110     -0.4308      0.1989      0.0262
        58        -0.0141     -0.0464      0.0331      0.0035      0.0005
        59         0.0017     -0.0570     -0.4038      0.1663      0.0220
        60         0.0589     -0.2194      0.3460      0.1713      0.0229
 Ground to excited state transition velocity dipole moments (Au):
       state          X           Y           Z        Dip. S.      Osc.
         1         0.0007      0.0000      0.0000      0.0000      0.0000
         2         0.0029     -0.0001      0.0000      0.0000      0.0001
         3        -0.1693      0.0063     -0.0011      0.0287      0.1801
         4         0.0932     -0.0032      0.0004      0.0087      0.0513
         5        -0.0015      0.0029      0.0068      0.0001      0.0003
         6         0.0000      0.0000      0.0000      0.0000      0.0000
         7        -0.0004     -0.0072     -0.0032      0.0001      0.0003
         8        -0.2813      0.0027      0.0022      0.0792      0.4271
         9        -0.0974      0.0074     -0.0033      0.0095      0.0486
        10         0.0000     -0.0001     -0.0003      0.0000      0.0000
        11        -0.0001     -0.0012     -0.0058      0.0000      0.0002
        12         0.0000      0.0000      0.0000      0.0000      0.0000
        13         0.0024      0.0560      0.0519      0.0058      0.0288
        14        -0.0136      0.0013      0.0003      0.0002      0.0009
        15         0.0000      0.0000      0.0000      0.0000      0.0000
        16        -0.0191      0.0015      0.0012      0.0004      0.0018
        17        -0.0001      0.0103     -0.0140      0.0003      0.0014
        18         0.0001      0.0002     -0.0009      0.0000      0.0000
        19        -0.0004      0.0040      0.0000      0.0000      0.0001
        20        -0.0026      0.0004      0.0005      0.0000      0.0000
        21         0.0090      0.2224      0.1155      0.0629      0.2867
        22         0.0021      0.0146     -0.0005      0.0002      0.0010
        23        -0.0078     -0.1679     -0.0918      0.0367      0.1663
        24        -0.0001      0.0738      0.0397      0.0070      0.0318
        25        -0.0004     -0.0018     -0.0006      0.0000      0.0000
        26        -0.0003     -0.0014      0.0004      0.0000      0.0000
        27        -0.0024      0.0003      0.0002      0.0000      0.0000
        28        -0.0062     -0.1208      0.0103      0.0147      0.0638
        29        -0.0884      0.0044     -0.0009      0.0078      0.0333
        30        -0.0001     -0.0001     -0.0037      0.0000      0.0001
        31         0.0146     -0.0010      0.0002      0.0002      0.0009
        32        -0.0010      0.0002     -0.0005      0.0000      0.0000
        33         0.0088     -0.0015      0.0045      0.0001      0.0004
        34        -0.0023     -0.0219      0.1520      0.0236      0.0927
        35        -0.0013     -0.0012     -0.0133      0.0002      0.0007
        36         0.0017      0.0546     -0.0973      0.0125      0.0478
        37        -0.0034     -0.0020      0.0081      0.0001      0.0003
        38        -0.0027     -0.0013      0.0070      0.0001      0.0002
        39         0.0000      0.0000      0.0006      0.0000      0.0000
        40         0.0062     -0.0008      0.0000      0.0000      0.0001
        41         0.0004     -0.0001     -0.0001      0.0000      0.0000
        42         0.0001      0.0001     -0.0001      0.0000      0.0000
        43         0.0000     -0.0001      0.0000      0.0000      0.0000
        44         0.0316      0.1494      0.0181      0.0237      0.0885
        45        -0.0021     -0.0093     -0.0349      0.0013      0.0048
        46         0.0352      0.6345      0.0993      0.4136      1.4937
        47         0.0000      0.0003      0.0019      0.0000      0.0000
        48        -0.0073     -0.0826      0.5715      0.3335      1.1870
        49         0.0000      0.0015     -0.0079      0.0001      0.0002
        50         0.0055      0.0138     -0.2443      0.0599      0.2110
        51         0.0005     -0.0019     -0.0031      0.0000      0.0000
        52        -0.2515      0.0097     -0.0065      0.0634      0.2208
        53        -0.0027     -0.0422      0.1202      0.0162      0.0563
        54         0.0224     -0.0192      0.0329      0.0020      0.0067
        55         0.0052     -0.0125      0.0035      0.0002      0.0007
        56         0.0248     -0.0850      0.0193      0.0082      0.0277
        57        -0.0060      0.0216      0.0796      0.0068      0.0231
        58         0.0034      0.0101     -0.0046      0.0001      0.0005
        59        -0.0002      0.0141      0.0751      0.0058      0.0196
        60        -0.0121      0.0419     -0.0695      0.0067      0.0224
 Ground to excited state transition magnetic dipole moments (Au):
       state          X           Y           Z
         1        -0.0029      0.0001      0.0002
         2        -0.0117      0.0003      0.0008
         3         0.1718     -0.0204     -0.0538
         4        -0.0345      0.0121      0.0324
         5        -0.0005      0.0341      0.0985
         6         0.0005      0.0000     -0.0002
         7         0.0001     -0.0273      0.0601
         8        -0.0859     -0.1226     -0.1052
         9        -0.0459      0.0478     -0.0245
        10        -0.0019      0.0007     -0.0049
        11         0.0023      0.0114     -0.1566
        12        -0.0001      0.0000      0.0000
        13        -0.0086      0.1889     -0.2421
        14        -0.0497      0.0067     -0.0063
        15         0.0003      0.0000     -0.0001
        16         0.0241     -0.0008     -0.0098
        17         0.0032      0.0487     -0.0003
        18        -0.0080      0.0026     -0.0011
        19         0.0877     -0.0150      0.0411
        20         0.0698      0.0002      0.0110
        21         0.0111      1.1177     -2.4374
        22         0.0044     -0.0519      0.1162
        23         0.0302     -0.8476      1.5392
        24         0.0940      0.3467     -0.5994
        25         0.0092     -0.0083      0.0152
        26         0.0771     -0.0141      0.0237
        27        -0.0255      0.0040     -0.0047
        28        -0.0149     -0.3363      2.7246
        29         0.5728     -0.0313     -0.0384
        30         0.0030      0.0305     -0.0569
        31         0.0323     -0.0025      0.0060
        32         0.0015     -0.0009     -0.0002
        33        -0.0116      0.0179      0.0039
        34        -0.0158      0.6059     -0.1872
        35        -0.0293     -0.0435     -0.0570
        36         0.0105     -0.4360     -0.6150
        37         0.0183      0.0258      0.0764
        38         0.0175      0.0236      0.0674
        39         0.0017      0.0036      0.0054
        40        -0.0078     -0.0047      0.0112
        41        -0.0010     -0.0012     -0.0003
        42         0.0000     -0.0014      0.0005
        43        -0.0001     -0.0005     -0.0009
        44        -0.0248      0.2221     -1.0816
        45        -0.0633     -1.7427      0.2041
        46         0.0573     -0.3253      2.7485
        47        -0.0008      0.0066      0.0037
        48        -0.0548      2.4133      0.3075
        49         0.0004     -0.0376     -0.0004
        50         0.0215     -1.0973      0.1061
        51         0.0004     -0.0051      0.0003
        52         0.0424     -0.0200     -0.0916
        53         0.0470      1.8084      0.4683
        54        -0.0179     -0.3472      0.9255
        55         0.0126     -0.0434      0.0259
        56         0.1528      0.0625     -0.9350
        57        -0.0323      0.3505      0.0809
        58        -0.0209     -0.0850      0.1022
        59        -0.0017      0.4971     -0.1365
        60         0.0664     -0.2745      0.2417
 Ground to excited state transition velocity quadrupole moments (Au):
       state          XX          YY          ZZ          XY          XZ          YZ
         1        -0.0094     -0.0020      0.0022      0.0002      0.0000     -0.0019
         2        -0.0372     -0.0077      0.0086      0.0008     -0.0003     -0.0077
         3         1.4352      0.1313     -0.1406     -0.0298     -0.0043      0.1666
         4        -0.6399     -0.0325      0.0490      0.0134      0.0047     -0.0600
         5         0.0077      0.0030     -0.0007     -0.0484     -0.0832      0.0025
         6         0.0005      0.0001     -0.0001     -0.0001      0.0001     -0.0001
         7         0.0076     -0.0047      0.0000      0.0993      0.0515     -0.0013
         8        -1.3359     -0.1071      0.1602      0.0467     -0.0299      0.0896
         9         1.9109     -0.0454      0.0520     -0.0442     -0.0071      0.0099
        10         0.0027     -0.0007      0.0004      0.0024      0.0038      0.0001
        11         0.0070     -0.0046      0.0003      0.0507      0.0808     -0.0019
        12         0.0001     -0.0001      0.0000     -0.0001     -0.0001     -0.0001
        13        -0.0700      0.0418      0.0011     -0.8226     -0.5973      0.0111
        14         0.0880     -0.1060      0.0576     -0.0108     -0.0107     -0.0572
        15        -0.0004      0.0002      0.0000     -0.0002     -0.0002      0.0001
        16         0.5047      0.0181     -0.0246     -0.0283     -0.0090      0.0423
        17         0.0068      0.0027     -0.0010     -0.1105      0.0681      0.0021
        18         0.0040     -0.0012      0.0008     -0.0046      0.0046      0.0003
        19        -0.0306      0.0111     -0.0100      0.0299      0.0130     -0.0041
        20        -0.0038     -0.0059      0.0068     -0.0151     -0.0065      0.0137
        21        -0.2389      0.1458     -0.0018     -3.0550     -1.6077      0.0383
        22         0.0661     -0.0398      0.0121      0.2054      0.0939     -0.0024
        23         0.1952     -0.1147      0.0002      2.3645      1.3713     -0.0258
        24        -0.0580      0.0452      0.0017     -0.9860     -0.5774      0.0314
        25         0.0016      0.0014     -0.0011      0.0204      0.0111      0.0000
        26        -0.0297      0.0127     -0.0090      0.0206      0.0076     -0.0117
        27         0.0188      0.0271     -0.0072     -0.0051     -0.0039      0.0063
        28         0.1358     -0.0541      0.0018      1.3040     -0.1076      0.0004
        29         2.0527     -0.4956      0.0833     -0.0948      0.0053     -0.0122
        30         0.0045     -0.0013     -0.0007      0.0246      0.0706     -0.0018
        31        -0.2666     -0.2292      0.0561      0.0021     -0.0040     -0.1140
        32         0.0178      0.0041     -0.0016     -0.0014      0.0028      0.0031
        33        -0.1523     -0.0314      0.0105      0.0132     -0.0171     -0.0235
        34         0.0226      0.0049      0.0136      0.1095     -0.6359     -0.0186
        35         0.0349      0.0024     -0.0062     -0.0275      0.0509      0.0073
        36        -0.0386      0.0285     -0.0136     -0.6329      0.2893      0.0201
        37         0.0485      0.0107     -0.0070      0.0400     -0.0248      0.0131
        38         0.0372      0.0087     -0.0058      0.0314     -0.0210      0.0109
        39        -0.0027     -0.0005      0.0002      0.0012     -0.0012      0.0002
        40        -0.1250     -0.0305      0.0187      0.0132      0.0010     -0.0209
        41        -0.0069     -0.0015      0.0016      0.0005      0.0002     -0.0015
        42        -0.0014     -0.0008     -0.0002      0.0014     -0.0003     -0.0003
        43         0.0002      0.0002      0.0008     -0.0006      0.0004     -0.0003
        44         0.6067     -0.2314      0.0445      1.1771      0.1273     -0.0372
        45         0.0363     -0.0510      0.0022      0.5188     -0.2600      0.0359
        46         0.3704     -0.6945      0.0624      2.1665      0.3022      0.2859
        47         0.0021     -0.0002      0.0009      0.0030     -0.0094     -0.0005
        48         0.0192      0.0112      0.0597      0.4265     -2.7379     -0.0649
        49         0.0003     -0.0009     -0.0010      0.0001      0.0372      0.0009
        50        -0.0168     -0.0318     -0.0158      0.1478      1.2842      0.0166
        51        -0.0141     -0.0028      0.0016      0.0061      0.0198     -0.0027
        52         3.7891      1.2254     -0.3931     -0.0792      0.0264      0.7550
        53         0.0430      0.0060      0.0168      0.3535      0.0284     -0.0427
        54         0.3955     -0.0740      0.0051     -0.5945      0.0833     -0.0718
        55         0.1036     -0.0160     -0.0019     -0.1154      0.0363     -0.0187
        56         0.6781     -0.1000      0.0057     -0.5121      0.1208     -0.1151
        57        -0.1656     -0.0058      0.0402     -0.0687     -0.4756     -0.0002
        58        -0.0023      0.0070      0.0243      0.1737     -0.0474     -0.0171
        59        -0.0491      0.0020      0.0063     -0.2533     -0.5329     -0.0031
        60         0.0418     -0.0307     -0.0275      0.1494      0.4435      0.0606
 <0|del|b> * <b|rxdel|0> + <0|del|b> * <b|delr+rdel|0>
 Rotatory Strengths (R) in cgs (10**-40 erg-esu-cm/Gauss)
       state          XX          YY          ZZ    R(velocity)    E-M Angle
         1         0.0000     -0.0205     -0.0041     -0.0082       90.00
         2        -0.0001     -0.3196     -0.0656     -0.1284       90.00
         3        -0.0392   -190.5202     -3.4485    -64.6693      161.78
         4        -0.0202    -27.5335      7.2607     -6.7643      135.36
         5         2.1286      3.0942     -0.4328      1.5967       12.03
         6         0.0000     -0.0001     -0.0001      0.0000       90.00
         7         0.1702      0.3631     -0.5047      0.0095       90.00
         8        -1.0900     -3.9530    140.0485     45.0019       62.72
         9         1.7084      9.3078     15.4824      8.8329       44.77
        10         0.0027      0.0060     -0.0008      0.0026       90.00
        11         1.8420      3.1794     -0.2894      1.5773       15.80
        12         0.0000      0.0000      0.0000      0.0000       90.00
        13       -29.3998     78.8361    -59.9349     -3.4995       94.91
        14         0.0466      3.7567     -0.2793      1.1747        8.59
        15         0.0000      0.0000      0.0000      0.0000       90.00
        16        -0.0836     -3.1813      0.8512     -0.8046      161.14
        17         3.4163     -3.9057      3.0605      0.8570       53.31
        18         0.0112     -0.0089      0.0028      0.0017       90.00
        19        -0.2793     -0.0768     -0.1042     -0.1534       90.00
        20         0.0020     -0.5105     -0.3705     -0.2930       90.00
        21       -68.0976    173.5350   -264.0644    -52.8756       92.80
        22        -5.4997      0.1165      1.5071     -1.2921      115.41
        23        33.7807    182.1640   -212.4618      1.1610       89.88
        24        12.6436     36.8480    -40.9119      2.8599       88.25
        25         0.0288     -0.0017     -0.0212      0.0020       90.00
        26         0.1115     -0.0390     -0.0356      0.0123       90.00
        27         0.0003      0.1078      0.1792      0.0958       90.00
        28       158.8243     33.8322    123.4217    105.3594       78.09
        29        -0.0834   -111.9327   -116.9501    -76.3221      175.55
        30         0.2654      0.6508     -0.0207      0.2985       29.84
        31         0.0005     -2.5294      4.5445      0.6719       90.00
        32         0.0004     -0.0113      0.0042     -0.0022       90.00
        33         0.0499     -0.7329      0.2170     -0.1553      120.92
        34       -81.2958    -93.8730      1.3576    -57.9371      115.33
        35         2.5496      0.8668      0.0776      1.1646       35.40
        36       166.5687     -3.4400    -16.3640     48.9216       64.65
        37         1.7052      0.3795     -0.0403      0.6815       47.63
        38         1.2881      0.3523     -0.0432      0.5324       45.51
        39         0.0084      0.0050      0.0003      0.0046       90.00
        40         0.0100     -0.3602      0.1709     -0.0598       90.00
        41         0.0002     -0.0017      0.0006     -0.0003       90.00
        42        -0.0006      0.0001     -0.0003     -0.0002       90.00
        43         0.0002      0.0000      0.0000      0.0001       90.00
        44        31.5636    -85.0532    104.4360     16.9821       85.67
        45       -22.3368     21.6010     36.8963     12.0535       81.63
        46       171.8132    133.8138    -43.5776     87.3498       87.80
        47         0.0352      0.0024     -0.0019      0.0119       90.00
        48       -11.8487   -126.7790     50.5039    -29.3746       90.95
        49        -0.2109      0.0065     -0.0012     -0.0685       90.00
        50      -177.1149     19.4345      4.8558    -50.9415       98.72
        51         0.0494      0.0314     -0.0481      0.0109       90.00
        52         1.2197   -370.4458    331.2858    -12.6468      113.34
        53        43.4800     25.3551   -142.9617    -24.7088       94.86
        54        34.6792     86.9624     11.3480     44.3299       32.75
        55         1.2240      0.8406      0.4540      0.8395       16.39
        56       -41.1139    -12.9383    -16.0409    -23.3644      103.13
        57        33.8000     21.6835     -4.5136     16.9900       61.58
        58        -2.9387      0.3544     -2.4171     -1.6671      153.53
        59       -26.3721     15.6340     -0.8958     -3.8780       94.76
        60      -100.8887    -14.0238     12.3586    -34.1846      162.61
 1/2[<0|r|b>*<b|rxdel|0> + (<0|rxdel|b>*<b|r|0>)*]
 Rotatory Strengths (R) in cgs (10**-40 erg-esu-cm/Gauss)
       state          XX          YY          ZZ     R(length)
         1        -0.0238      0.0000      0.0000     -0.0079
         2        -0.3729     -0.0004      0.0003     -0.1243
         3      -187.8667     -0.8249      0.3343    -62.7858
         4       -19.4677     -0.2355      0.0533     -6.5500
         5         0.0050      0.1969      2.9399      1.0473
         6        -0.0001      0.0000      0.0000      0.0000
         7        -0.0002      1.1705     -0.9757      0.0649
         8       132.4730     -1.7474     -1.5881     43.0458
         9        23.2065      1.8420      0.4325      8.4936
        10         0.0003     -0.0006      0.0067      0.0021
        11        -0.0024     -0.2155      3.5476      1.1099
        12         0.0000      0.0000      0.0000      0.0000
        13        -0.1094     56.9817    -63.3262     -2.1513
        14         2.5308      0.0390     -0.0087      0.8537
        15         0.0000      0.0000      0.0000      0.0000
        16        -2.0785     -0.0059     -0.0594     -0.7146
        17        -0.0005      2.2593      0.0194      0.7594
        18        -0.0025      0.0021      0.0050      0.0015
        19        -0.1242     -0.3083      0.0159     -0.1389
        20        -0.8475      0.0002      0.0169     -0.2768
        21         0.4840   1204.9959  -1399.2887    -64.6029
        22         0.0557     -4.5661      0.3101     -1.4001
        23        -1.1492    701.5151   -662.9242     12.4806
        24         0.0582    126.2014   -111.0529      5.0689
        25        -0.0191      0.0761     -0.0433      0.0045
        26        -0.1139      0.1532      0.0559      0.0317
        27         0.2739      0.0053     -0.0044      0.0916
        28         0.4072    179.3991     96.4498     92.0854
        29      -223.3129     -0.6062      0.1557    -74.5878
        30        -0.0015     -0.1514      0.9892      0.2787
        31         2.2074      0.0105      0.0046      0.7408
        32        -0.0066     -0.0007      0.0005     -0.0022
        33        -0.4289     -0.1064      0.0750     -0.1534
        34         0.1407    -43.7084   -121.0366    -54.8681
        35         0.1334      0.2531      3.1687      1.1851
        36         0.0808   -104.3247    246.8111     47.5224
        37        -0.2602     -0.2505      2.5372      0.6755
        38        -0.2004     -0.1509      1.9266      0.5251
        39         0.0000      0.0006      0.0125      0.0044
        40        -0.1903      0.0168      0.0025     -0.0570
        41        -0.0015      0.0003      0.0001     -0.0004
        42         0.0000     -0.0004     -0.0002     -0.0002
        43         0.0000      0.0002      0.0002      0.0001
        44        -3.1829    131.7955    -74.4654     18.0491
        45         0.5419     75.0559    -27.4141     16.0612
        46         7.8124   -802.6690   1050.2781     85.1405
        47        -0.0001      0.0087      0.0273      0.0120
        48         1.5129   -746.5996    670.0367    -25.0167
        49        -0.0001     -0.2148      0.0106     -0.0681
        50         0.4617    -68.4018    -99.3792    -55.7731
        51         0.0008      0.0320     -0.0036      0.0097
        52       -40.0483     -0.7373      2.2115    -12.8580
        53        -0.4788   -295.2357    209.3916    -28.7743
        54        -1.4459     29.4049    107.1982     45.0524
        55         0.2446      1.9996      0.3100      0.8514
        56        14.5581    -19.1404    -69.6270    -24.7364
        57         0.7184     27.5067     24.6385     17.6212
        58        -0.2079     -2.7903     -2.3938     -1.7974
        59         0.0021     20.0400    -38.9681     -6.3087
        60        -2.7641    -42.5803    -59.1349    -34.8264
  1/2[<0|del|b>*<b|r|0> + (<0|r|b>*<b|del|0>)*] (Au)
       state          X           Y           Z        Dip. S.   Osc.(frdel)
         1         0.0000      0.0000      0.0000      0.0000      0.0000
         2        -0.0001      0.0000      0.0000      0.0001      0.0001
         3        -0.2619     -0.0004      0.0000      0.2622      0.1748
         4        -0.0744     -0.0001      0.0000      0.0744      0.0496
         5         0.0000      0.0000     -0.0003      0.0003      0.0002
         6         0.0000      0.0000      0.0000      0.0000      0.0000
         7         0.0000     -0.0004     -0.0001      0.0005      0.0003
         8        -0.6138     -0.0001      0.0000      0.6139      0.4093
         9        -0.0696     -0.0004     -0.0001      0.0701      0.0467
        10         0.0000      0.0000      0.0000      0.0000      0.0000
        11         0.0000      0.0000     -0.0002      0.0002      0.0001
        12         0.0000      0.0000      0.0000      0.0000      0.0000
        13         0.0000     -0.0239     -0.0192      0.0432      0.0288
        14        -0.0010      0.0000      0.0000      0.0010      0.0007
        15         0.0000      0.0000      0.0000      0.0000      0.0000
        16        -0.0023      0.0000      0.0000      0.0024      0.0016
        17         0.0000     -0.0007     -0.0015      0.0021      0.0014
        18         0.0000      0.0000      0.0000      0.0000      0.0000
        19         0.0000     -0.0001      0.0000      0.0001      0.0001
        20         0.0000      0.0000      0.0000      0.0000      0.0000
        21        -0.0006     -0.3391     -0.0938      0.4334      0.2889
        22         0.0000     -0.0018      0.0000      0.0018      0.0012
        23        -0.0004     -0.1965     -0.0559      0.2529      0.1686
        24         0.0000     -0.0380     -0.0104      0.0484      0.0322
        25         0.0000      0.0000      0.0000      0.0000      0.0000
        26         0.0000      0.0000      0.0000      0.0000      0.0000
        27         0.0000      0.0000      0.0000      0.0000      0.0000
        28        -0.0002     -0.0911     -0.0005      0.0918      0.0612
        29        -0.0487     -0.0001      0.0000      0.0489      0.0326
        30         0.0000      0.0000     -0.0001      0.0001      0.0001
        31        -0.0014      0.0000      0.0000      0.0014      0.0009
        32         0.0000      0.0000      0.0000      0.0000      0.0000
        33        -0.0005      0.0000     -0.0001      0.0006      0.0004
        34         0.0000     -0.0022     -0.1389      0.1412      0.0941
        35         0.0000      0.0000     -0.0010      0.0011      0.0007
        36         0.0000     -0.0185     -0.0552      0.0737      0.0491
        37        -0.0001      0.0000     -0.0004      0.0005      0.0003
        38         0.0000      0.0000     -0.0003      0.0003      0.0002
        39         0.0000      0.0000      0.0000      0.0000      0.0000
        40        -0.0002      0.0000      0.0000      0.0002      0.0001
        41         0.0000      0.0000      0.0000      0.0000      0.0000
        42         0.0000      0.0000      0.0000      0.0000      0.0000
        43         0.0000      0.0000      0.0000      0.0000      0.0000
        44        -0.0057     -0.1254     -0.0018      0.1329      0.0886
        45         0.0000     -0.0006     -0.0066      0.0072      0.0048
[...]
  Beta virt. eigenvalues --    0.81124   0.81346   0.81765   0.82014   0.82136
  Beta virt. eigenvalues --    0.82392   0.82785   0.83071   0.83403   0.83634
  Beta virt. eigenvalues --    0.84277   0.84707   0.84992   0.85636   0.86292
  Beta virt. eigenvalues --    0.86518   0.86927   0.87058   0.87456   0.87823
  Beta virt. eigenvalues --    0.88154   0.88747   0.89435   0.90358   0.90762
  Beta virt. eigenvalues --    0.91096   0.91713   0.92376   0.92688   0.93192
  Beta virt. eigenvalues --    0.93265   0.93619   0.94427   0.95161   0.95455
  Beta virt. eigenvalues --    0.95661   0.96691   0.97269   0.97465   0.97606
  Beta virt. eigenvalues --    0.97756   0.97983   0.98417   0.98903   0.99058
  Beta virt. eigenvalues --    0.99190   0.99428   0.99701   0.99963   1.00240
  Beta virt. eigenvalues --    1.00479   1.01028   1.01052   1.01268   1.01363
  Beta virt. eigenvalues --    1.01756   1.01871   1.02180   1.02621   1.03088
  Beta virt. eigenvalues --    1.03434   1.03510   1.03615   1.04002   1.04338
  Beta virt. eigenvalues --    1.04458   1.04609   1.04714   1.04997   1.05284
  Beta virt. eigenvalues --    1.05477   1.05521   1.05678   1.05862   1.06361
  Beta virt. eigenvalues --    1.06513   1.06595   1.06894   1.07130   1.07833
  Beta virt. eigenvalues --    1.07893   1.08126   1.08296   1.08579   1.08650
  Beta virt. eigenvalues --    1.08946   1.09049   1.09310   1.09753   1.10216
  Beta virt. eigenvalues --    1.10408   1.10449   1.10720   1.11059   1.11332
  Beta virt. eigenvalues --    1.11988   1.12134   1.12468   1.12686   1.12893
  Beta virt. eigenvalues --    1.13188   1.13320   1.13365   1.13432   1.13673
  Beta virt. eigenvalues --    1.13802   1.13949   1.14296   1.14712   1.14788
  Beta virt. eigenvalues --    1.14997   1.15212   1.15411   1.15788   1.16236
  Beta virt. eigenvalues --    1.16559   1.16824   1.17069   1.17181   1.17602
  Beta virt. eigenvalues --    1.18291   1.18671   1.18770   1.19405   1.19906
  Beta virt. eigenvalues --    1.20094   1.20463   1.20904   1.21294   1.21824
  Beta virt. eigenvalues --    1.22066   1.22772   1.23666   1.24432   1.25091
  Beta virt. eigenvalues --    1.25710   1.26565   1.27093   1.28163   1.29285
  Beta virt. eigenvalues --    1.29976   1.30865   1.31305   1.32515   1.33471
  Beta virt. eigenvalues --    1.34411   1.34538   1.35250   1.35504   1.36394
  Beta virt. eigenvalues --    1.36616   1.36948   1.38099   1.38778   1.38882
  Beta virt. eigenvalues --    1.39333   1.39908   1.40089   1.41191   1.41734
  Beta virt. eigenvalues --    1.41867   1.42574   1.42796   1.43665   1.43945
  Beta virt. eigenvalues --    1.44270   1.45236   1.45562   1.45652   1.46705
  Beta virt. eigenvalues --    1.47243   1.48374   1.48989   1.49188   1.49792
  Beta virt. eigenvalues --    1.50162   1.50632   1.51325   1.52127   1.52259
  Beta virt. eigenvalues --    1.52581   1.53119   1.53477   1.53766   1.54272
  Beta virt. eigenvalues --    1.54593   1.54790   1.55281   1.55610   1.55810
  Beta virt. eigenvalues --    1.56217   1.56678   1.56805   1.56958   1.57232
  Beta virt. eigenvalues --    1.57535   1.57643   1.57799   1.57970   1.58387
  Beta virt. eigenvalues --    1.58808   1.58858   1.59116   1.59202   1.59765
  Beta virt. eigenvalues --    1.60114   1.60184   1.60761   1.61007   1.61232
  Beta virt. eigenvalues --    1.61620   1.61838   1.62320   1.62757   1.62997
  Beta virt. eigenvalues --    1.63538   1.64301   1.64410   1.64953   1.65450
  Beta virt. eigenvalues --    1.65589   1.65829   1.66505   1.66858   1.67073
  Beta virt. eigenvalues --    1.67434   1.67558   1.67757   1.68282   1.68570
  Beta virt. eigenvalues --    1.68833   1.69064   1.69190   1.69513   1.69575
  Beta virt. eigenvalues --    1.69879   1.70174   1.70470   1.70832   1.71004
  Beta virt. eigenvalues --    1.71107   1.71736   1.71997   1.72228   1.72481
  Beta virt. eigenvalues --    1.72923   1.73018   1.73183   1.73570   1.73808
  Beta virt. eigenvalues --    1.73866   1.74041   1.74356   1.74532   1.74684
  Beta virt. eigenvalues --    1.74948   1.75130   1.75286   1.75821   1.76057
  Beta virt. eigenvalues --    1.76192   1.76815   1.77226   1.77355   1.77419
  Beta virt. eigenvalues --    1.77616   1.78330   1.78555   1.78668   1.78918
  Beta virt. eigenvalues --    1.79084   1.79531   1.79620   1.79773   1.80011
  Beta virt. eigenvalues --    1.80399   1.80559   1.81046   1.81219   1.81497
  Beta virt. eigenvalues --    1.81729   1.81973   1.82341   1.82485   1.83276
  Beta virt. eigenvalues --    1.83511   1.83708   1.84091   1.84674   1.85060
  Beta virt. eigenvalues --    1.85412   1.85524   1.85849   1.86008   1.86139
  Beta virt. eigenvalues --    1.86470   1.86805   1.87092   1.87432   1.87874
  Beta virt. eigenvalues --    1.88193   1.88476   1.88724   1.88778   1.89006
  Beta virt. eigenvalues --    1.89243   1.89844   1.89957   1.90182   1.90497
  Beta virt. eigenvalues --    1.90762   1.91084   1.91162   1.91820   1.92070
  Beta virt. eigenvalues --    1.92142   1.92399   1.92532   1.92854   1.93241
  Beta virt. eigenvalues --    1.93364   1.93486   1.93645   1.93912   1.94200
  Beta virt. eigenvalues --    1.94487   1.94718   1.94747   1.94904   1.95295
  Beta virt. eigenvalues --    1.95857   1.96036   1.96312   1.96631   1.96908
  Beta virt. eigenvalues --    1.97135   1.97528   1.97809   1.98120   1.98650
  Beta virt. eigenvalues --    1.98816   1.99246   1.99586   2.00209   2.00838
  Beta virt. eigenvalues --    2.01044   2.01491   2.01848   2.02336   2.03136
  Beta virt. eigenvalues --    2.03378   2.03857   2.04344   2.04516   2.04764
  Beta virt. eigenvalues --    2.05236   2.05498   2.05671   2.05937   2.06145
  Beta virt. eigenvalues --    2.06450   2.06837   2.06979   2.07141   2.07283
  Beta virt. eigenvalues --    2.07534   2.07636   2.08100   2.08157   2.08382
  Beta virt. eigenvalues --    2.08744   2.08762   2.08975   2.09296   2.09438
  Beta virt. eigenvalues --    2.09987   2.10237   2.10444   2.10640   2.11471
  Beta virt. eigenvalues --    2.11904   2.12144   2.12303   2.13564   2.13933
  Beta virt. eigenvalues --    2.14741   2.15072   2.15688   2.16295   2.17382
  Beta virt. eigenvalues --    2.18101   2.18845   2.19659   2.20818   2.21541
  Beta virt. eigenvalues --    2.22073   2.22906   2.23410   2.24199   2.25415
  Beta virt. eigenvalues --    2.25851   2.26085   2.26650   2.27123   2.27494
  Beta virt. eigenvalues --    2.28149   2.29071   2.29241   2.30504   2.30825
  Beta virt. eigenvalues --    2.31094   2.31464   2.32160   2.33348   2.33421
  Beta virt. eigenvalues --    2.34172   2.34691   2.34774   2.35892   2.37174
  Beta virt. eigenvalues --    2.37715   2.38839   2.38959   2.39285   2.41421
  Beta virt. eigenvalues --    2.42408   2.42926   2.43940   2.45028   2.45848
  Beta virt. eigenvalues --    2.46296   2.47106   2.47285   2.47720   2.47964
  Beta virt. eigenvalues --    2.48168   2.48305   2.49238   2.49476   2.50377
  Beta virt. eigenvalues --    2.51270   2.51786   2.52042   2.52155   2.52849
  Beta virt. eigenvalues --    2.53168   2.53377   2.53446   2.53603   2.54125
  Beta virt. eigenvalues --    2.54497   2.55283   2.55357   2.56131   2.56252
  Beta virt. eigenvalues --    2.56388   2.56911   2.57217   2.57979   2.59048
  Beta virt. eigenvalues --    2.60397   2.64845   2.65803   2.66598   2.67761
  Beta virt. eigenvalues --    2.71996   2.73411   2.73459   2.73798   2.74733
  Beta virt. eigenvalues --    2.75105   2.75473   2.75740   2.77022   2.77377
  Beta virt. eigenvalues --    2.78092   2.78268   2.79044   2.79422   2.80261
  Beta virt. eigenvalues --    2.81692   2.81913   2.82143   2.82342   2.83054
  Beta virt. eigenvalues --    2.84278   2.84481   2.85684   2.86378   2.86822
  Beta virt. eigenvalues --    2.87121   2.87341   2.87654   2.90358   2.90493
  Beta virt. eigenvalues --    2.91315   2.93102   2.93361   2.95277   2.95525
  Beta virt. eigenvalues --    2.96855   2.97675   2.98165   2.99279   2.99881
  Beta virt. eigenvalues --    3.00279   3.01359   3.01728   3.05806   3.07428
  Beta virt. eigenvalues --    3.12578   3.17313   3.22744   3.25209   3.30131
  Beta virt. eigenvalues --    3.45120   3.51770   3.61131   3.62613   3.63183
  Beta virt. eigenvalues --    3.63927   3.65247   3.65509   3.65888   3.66078
  Beta virt. eigenvalues --    3.87636
          Condensed to atoms (all electrons):
          Atomic-Atomic Spin Densities.
 Mulliken charges and spin densities:
               1          2
     1  O   -0.252752   0.000005
     2  C   -0.028201  -0.000028
     3  C    0.001080   0.000010
     4  C   -0.005059   0.000000
     5  C   -0.001390   0.000001
     6  C   -0.013023  -0.000001
     7  C    0.002990   0.000001
     8  C   -0.016257  -0.000002
     9  C   -0.060024   0.000003
    10  C    0.035731  -0.000001
    11  C   -0.001748   0.000001
    12  C   -0.011025  -0.000001
    13  C    0.002839   0.000001
    14  C   -0.013978  -0.000001
    15  C    0.007403   0.000389
    16  C    0.009880  -0.000177
    17  C   -0.000275   0.001042
    18  C   -0.024956   0.000009
    19  C    0.010204   0.000119
    20  C   -0.000261  -0.000131
    21  C    0.016564   0.000171
    22  C    0.000287  -0.000178
    23  C   -0.006113   0.001046
    24  C   -0.020984   0.000005
    25  C    0.007930   0.000114
    26  C    0.004818  -0.000128
    27  C   -0.013214   0.000169
    28  C   -0.018067  -0.003492
    29  C   -0.031196   0.045124
    30  C    0.004733  -0.018972
    31  C    0.003290   0.041574
    32  C   -0.018434  -0.013114
    33  C    0.009573   0.015222
    34  C    0.011392  -0.014089
    35  C   -0.026734   0.015129
    36  C    0.016697  -0.081939
    37  C   -0.082357   0.717130
    38  C    0.011029  -0.155116
    39  C   -0.021625   0.159243
    40  C    0.000154  -0.087360
    41  C   -0.015100   0.163654
    42  C   -0.001627  -0.088073
    43  C   -0.039013   0.158604
    44  C    0.011117  -0.154689
    45  C   -0.021243   0.158548
    46  C    0.000042  -0.086942
    47  C   -0.015123   0.162827
    48  C   -0.001787  -0.087679
    49  C   -0.039349   0.157815
    50  C    0.004833   0.041507
    51  C   -0.018919  -0.013112
    52  C    0.009830   0.015326
    53  C    0.010397  -0.014129
    54  C   -0.024896   0.015189
    55  C    0.000512  -0.018926
    56  H    0.172239   0.000000
    57  H   -0.003967   0.000000
    58  H    0.021201   0.000000
    59  H    0.020202   0.000000
    60  H    0.020555   0.000000
    61  H    0.003478   0.000000
    62  H    0.005976   0.000000
    63  H    0.023919   0.000000
    64  H    0.022187   0.000000
    65  H    0.022537   0.000000
    66  H    0.011759   0.000000
    67  H    0.006185  -0.000101
    68  H    0.016792  -0.000001
    69  H    0.014151   0.000008
    70  H   -0.003361   0.000002
    71  H    0.007778  -0.000089
    72  H    0.018117  -0.000001
    73  H    0.015333   0.000008
    74  H   -0.004150   0.000002
    75  H    0.002128  -0.001989
    76  H    0.019115  -0.000590
    77  H    0.019721   0.000583
    78  H    0.005899  -0.000449
    79  H    0.006707  -0.006460
    80  H    0.020791   0.003403
    81  H    0.020923  -0.006920
    82  H    0.022037   0.003529
    83  H    0.012202  -0.006896
    84  H    0.006841  -0.006435
    85  H    0.020742   0.003392
    86  H    0.020945  -0.006882
    87  H    0.022036   0.003516
    88  H    0.012281  -0.006858
    89  H    0.002158  -0.002006
    90  H    0.019130  -0.000594
    91  H    0.019527   0.000585
    92  H    0.007286  -0.000452
 Sum of Mulliken charges =   0.00000   1.00000
 Mulliken charges and spin densities with hydrogens summed into heavy atoms:
               1          2
     1  O   -0.080513   0.000005
     2  C   -0.028201  -0.000028
     3  C    0.001080   0.000010
     4  C   -0.009025   0.000000
     5  C    0.019811   0.000002
     6  C    0.007180  -0.000001
     7  C    0.023546   0.000001
     8  C   -0.012779  -0.000002
     9  C   -0.060024   0.000003
    10  C    0.041707  -0.000001
    11  C    0.022171   0.000001
    12  C    0.011163  -0.000001
    13  C    0.025376   0.000001
    14  C   -0.002219  -0.000001
    15  C    0.007403   0.000389
    16  C    0.009880  -0.000177
    17  C   -0.000275   0.001042
    18  C   -0.018771  -0.000092
    19  C    0.026996   0.000118
    20  C    0.013890  -0.000123
    21  C    0.013202   0.000173
    22  C    0.000287  -0.000178
    23  C   -0.006113   0.001046
    24  C   -0.013206  -0.000083
    25  C    0.026048   0.000113
    26  C    0.020151  -0.000120
    27  C   -0.017363   0.000171
    28  C   -0.018067  -0.003492
    29  C   -0.031196   0.045124
    30  C    0.004733  -0.018972
    31  C    0.003290   0.041574
    32  C   -0.016307  -0.015103
    33  C    0.028688   0.014631
    34  C    0.031113  -0.013507
    35  C   -0.020835   0.014680
    36  C    0.016697  -0.081939
    37  C   -0.082357   0.717130
    38  C    0.011029  -0.155116
    39  C   -0.014918   0.152783
    40  C    0.020945  -0.083956
    41  C    0.005823   0.156734
    42  C    0.020410  -0.084544
    43  C   -0.026811   0.151708
    44  C    0.011117  -0.154689
    45  C   -0.014402   0.152113
    46  C    0.020784  -0.083550
    47  C    0.005823   0.155944
    48  C    0.020248  -0.084163
    49  C   -0.027068   0.150957
    50  C    0.004833   0.041507
    51  C   -0.016761  -0.015118
    52  C    0.028960   0.014733
    53  C    0.029924  -0.013544
    54  C   -0.017609   0.014736
    55  C    0.000512  -0.018926
 Electronic spatial extent (au):  <R**2>=          40788.4541
 Charge=              0.0000 electrons
 Dipole moment (field-independent basis, Debye):
    X=              1.5790    Y=              1.6789    Z=              0.0027  Tot=              2.3048
 Quadrupole moment (field-independent basis, Debye-Ang):
   XX=           -256.1373   YY=           -293.0596   ZZ=           -296.8348
   XY=              5.1781   XZ=             -0.2305   YZ=             -0.5747
 Traceless Quadrupole moment (field-independent basis, Debye-Ang):
   XX=             25.8733   YY=            -11.0490   ZZ=            -14.8242
   XY=              5.1781   XZ=             -0.2305   YZ=             -0.5747
 Octapole moment (field-independent basis, Debye-Ang**2):
  XXX=             80.3428  YYY=             10.1359  ZZZ=             -0.8798  XYY=             17.0009
  XXY=             12.3556  XXZ=             -0.4838  XZZ=             27.7606  YZZ=             14.4682
  YYZ=             -8.8134  XYZ=            -57.3964
 Hexadecapole moment (field-independent basis, Debye-Ang**3):
 XXXX=         -38763.7224 YYYY=          -6983.5063 ZZZZ=          -5300.8282 XXXY=           -131.2764
 XXXZ=            110.5326 YYYX=             93.2583 YYYZ=            187.3343 ZZZX=             45.4389
 ZZZY=           -198.1360 XXYY=          -7709.3319 XXZZ=          -7730.5317 YYZZ=          -2254.5924
 XXYZ=            147.4870 YYXZ=           -106.9102 ZZXY=             15.2147
 N-N= 6.883337753748D+03 E-N=-1.876728897202D+04  KE= 2.140214065538D+03
 1|1|UNPC-CHSHR-P01|SP|UwB97XD TD-FC|CC-pVDZ|C54H37O1(2)|IBS|06-Jul-202
 4|0||# td=(nstates=60) wb97xd/cc-pvdz scrf=(cpcm,solvent=n,n-DiMethylF
 ormamide) geom=AllCheck guess=read maxdisk=900GB integral(ultrafinegri
 d)||OS1_conf2||0,2|O,0,1.3687571152,0.788748907,0.7767126535|C,0,2.553
 5815858,0.2516014537,0.1687820186|C,0,2.2568045027,-0.203660713,-1.268
 9934638|C,0,1.2218980272,0.395441864,-1.9933738221|C,0,0.9678802773,0.
 0243835495,-3.3130879364|C,0,1.747946291,-0.9531006159,-3.9301886986|C
 ,0,2.7792478065,-1.5589631986,-3.2135332588|C,0,3.0287028073,-1.189316
 851,-1.8922695449|C,0,3.5535410213,1.4208613194,0.2000674019|C,0,3.899
 9765661,1.9589860456,1.4481227366|C,0,4.7572133397,3.0501087341,1.5370
 922514|C,0,5.2716616663,3.6339872897,0.3767676677|C,0,4.9113647227,3.1
 221450421,-0.8667929772|C,0,4.0524881685,2.0241267683,-0.9557586537|C,
 0,2.966058245,-0.9648393863,1.0432010291|C,0,1.9410691665,-1.805623527
 7,1.5500852919|C,0,2.2483372623,-2.7945772017,2.5486808969|C,0,1.19575
 2886,-3.6125613961,3.0820497308|C,0,-0.0812953081,-3.5177147066,2.6148
 833831|C,0,-0.3824353017,-2.5913836505,1.5767004515|C,0,0.5814076688,-
 1.7643093398,1.0756637697|C,0,4.313197993,-1.2730687632,1.3542909213|C
 ,0,4.6074181769,-2.2471322459,2.3755693534|C,0,5.9739794931,-2.4935769
 299,2.7447524319|C,0,7.0072750878,-1.8880685943,2.0951572417|C,0,6.731
 8161829,-1.0028448691,1.0143906764|C,0,5.4460945624,-0.7044847223,0.66
 81222335|C,0,3.5702437208,-2.9606128015,2.9935826559|C,0,3.874084554,-
 3.9277738316,4.0921864115|C,0,4.1761637852,-5.2682816766,3.7908077737|
 C,0,4.4579078923,-6.1954201073,4.8506530543|C,0,4.7256276352,-7.562574
 2338,4.5058381429|C,0,4.7358047309,-7.9759407874,3.2045086065|C,0,4.47
 37083749,-7.0503404334,2.1518779227|C,0,4.2000303629,-5.743679088,2.43
 69812766|C,0,4.4391988326,-5.7615511103,6.1927140677|C,0,4.7298486,-6.
 7223740873,7.2925072657|C,0,6.1027618384,-7.1675689872,7.4675831672|C,
 0,7.1711369063,-6.3617941255,7.0093430748|C,0,8.4916091952,-6.77403136
 4,7.1415912653|C,0,8.7919059738,-8.0095898104,7.7205540932|C,0,7.75072
 57214,-8.8313951545,8.1591061627|C,0,6.4281115544,-8.4215852576,8.0357
 120688|C,0,3.6220922393,-7.1603018417,8.1265796387|C,0,2.301480479,-7.
 1291105062,7.6209918342|C,0,1.2215371911,-7.5181622488,8.4042177313|C,
 0,1.4188226091,-7.9367165482,9.7224754341|C,0,2.7126624077,-7.95344464
 63,10.2492273824|C,0,3.7977570764,-7.5718659696,9.4684481118|C,0,4.141
 3923498,-4.4152825,6.4899249214|C,0,4.1440105172,-3.9242074731,7.83841
 20089|C,0,3.8591736211,-2.6182004321,8.1171302129|C,0,3.554404693,-1.7
 058748451,7.0642841282|C,0,3.5549087028,-2.1283420288,5.7661715711|C,0
 ,3.8524350123,-3.4913900937,5.4291658437|H,0,1.3765572252,1.7398922757
 ,0.6169789388|H,0,0.6004464304,1.1544520814,-1.5176733836|H,0,0.153147
 5998,0.501957289,-3.8606742499|H,0,1.549612062,-1.2453340909,-4.962879
 7922|H,0,3.3925486105,-2.3310139787,-3.6817958231|H,0,3.8328650063,-1.
 6835395065,-1.3452374778|H,0,3.5027407462,1.503209074,2.3569789078|H,0
 ,5.0278107497,3.4477056503,2.5168927785|H,0,5.9473029928,4.4883730619,
 0.4451373945|H,0,5.2991752704,3.5764883674,-1.7802497184|H,0,3.7895657
 627,1.6285277997,-1.9371670555|H,0,1.442852183,-4.3346153997,3.8608041
 063|H,0,-0.8664233016,-4.1579351593,3.0203607884|H,0,-1.3953770759,-2.
 5439345133,1.1729291887|H,0,0.3165422908,-1.0687129726,0.2864994819|H,
 0,6.1723261055,-3.2019439983,3.5495955093|H,0,8.0391488492,-2.09792935
 36,2.3807877479|H,0,7.5561869723,-0.5637209391,0.4500746801|H,0,5.2853
 951047,-0.0444115861,-0.1779807135|H,0,4.9196392769,-8.2776555892,5.30
 56923238|H,0,4.9412833645,-9.0205575247,2.9650394938|H,0,4.4866971184,
 -7.393334137,1.1160393769|H,0,3.9910903966,-5.0385712764,1.631540685|H
 ,0,6.9520976192,-5.3927028987,6.5575294982|H,0,9.2959424613,-6.1250977
 717,6.7900843944|H,0,9.8290480571,-8.333892886,7.8205450318|H,0,7.9716
 73385,-9.8090484776,8.5916025727|H,0,5.6298714457,-9.0950549326,8.3498
 865982|H,0,2.1322476363,-6.8070707484,6.591969304|H,0,0.2148636749,-7.
 495556555,7.9826408627|H,0,0.5697165475,-8.2384633075,10.3379558161|H,
 0,2.8766451466,-8.2560543664,11.2851901266|H,0,4.7941379541,-7.5559297
 37,9.9117123267|H,0,4.383260691,-4.6140840603,8.6481246062|H,0,3.86761
 51885,-2.2659670148,9.1499326119|H,0,3.3266406688,-0.6653045116,7.3011
 35131|H,0,3.3303191941,-1.4276205779,4.9610283181||Version=EM64W-G09Re
 vD.01|State=2-A|HF=-2154.7015995|S2=0.796619|S2-1=0.|S2A=0.751987|RMSD
 =3.520e-009|PG=C01 [X(C54H37O1)]||@


 I FIND THAT THE THREE TRULY GREAT TIMES FOR THINKING THOUGHTS
 ARE WHEN I AM STANDING IN THE SHOWER, SITTING ON THE JOHN, OR WALKING.

                                    -- COLIN FLETCHER
 Job cpu time:       1 days  0 hours 38 minutes 19.0 seconds.
 File lengths (MBytes):  RWF=  16217 Int=      0 D2E=      0 Chk=   2109 Scr=      1
 Normal termination of Gaussian 09 at Sat Jul 06 20:30:40 2024.
