 Entering Link 1 = C:\G09W\l1.exe PID=     21824.
  
 Copyright (c) 1988,1990,1992,1993,1995,1998,2003,2009,2013,
            Gaussian, Inc.  All Rights Reserved.
  
 This is part of the Gaussian(R) 09 program.  It is based on
 the Gaussian(R) 03 system (copyright 2003, Gaussian, Inc.),
 the Gaussian(R) 98 system (copyright 1998, Gaussian, Inc.),
 the Gaussian(R) 94 system (copyright 1995, Gaussian, Inc.),
 the Gaussian 92(TM) system (copyright 1992, Gaussian, Inc.),
 the Gaussian 90(TM) system (copyright 1990, Gaussian, Inc.),
 the Gaussian 88(TM) system (copyright 1988, Gaussian, Inc.),
 the Gaussian 86(TM) system (copyright 1986, Carnegie Mellon
 University), and the Gaussian 82(TM) system (copyright 1983,
 Carnegie Mellon University). Gaussian is a federally registered
 trademark of Gaussian, Inc.
  
 This software contains proprietary and confidential information,
 including trade secrets, belonging to Gaussian, Inc.
  
 This software is provided under written license and may be
 used, copied, transmitted, or stored only in accord with that
 written license.
  
 The following legend is applicable only to US Government
 contracts under FAR:
  
                    RESTRICTED RIGHTS LEGEND
  
 Use, reproduction and disclosure by the US Government is
 subject to restrictions as set forth in subparagraphs (a)
 and (c) of the Commercial Computer Software - Restricted
 Rights clause in FAR 52.227-19.
  
 Gaussian, Inc.
 340 Quinnipiac St., Bldg. 40, Wallingford CT 06492
  
  
 ---------------------------------------------------------------
 Warning -- This program may not be used in any manner that
 competes with the business of Gaussian, Inc. or will provide
 assistance to any competitor of Gaussian, Inc.  The licensee
 of this program is prohibited from giving any competitor of
 Gaussian, Inc. access to this program.  By using this program,
 the user acknowledges that Gaussian, Inc. is engaged in the
 business of creating and licensing software in the field of
 computational chemistry and represents and warrants to the
 licensee that it is not a competitor of Gaussian, Inc. and that
 it will not use this program in any manner prohibited above.
 ---------------------------------------------------------------
  

 Cite this work as:
 Gaussian 09, Revision D.01,
 M. J. Frisch, G. W. Trucks, H. B. Schlegel, G. E. Scuseria, 
 M. A. Robb, J. R. Cheeseman, G. Scalmani, V. Barone, B. Mennucci, 
 G. A. Petersson, H. Nakatsuji, M. Caricato, X. Li, H. P. Hratchian, 
 A. F. Izmaylov, J. Bloino, G. Zheng, J. L. Sonnenberg, M. Hada, 
 M. Ehara, K. Toyota, R. Fukuda, J. Hasegawa, M. Ishida, T. Nakajima, 
 Y. Honda, O. Kitao, H. Nakai, T. Vreven, J. A. Montgomery, Jr., 
 J. E. Peralta, F. Ogliaro, M. Bearpark, J. J. Heyd, E. Brothers, 
 K. N. Kudin, V. N. Staroverov, T. Keith, R. Kobayashi, J. Normand, 
 K. Raghavachari, A. Rendell, J. C. Burant, S. S. Iyengar, J. Tomasi, 
 M. Cossi, N. Rega, J. M. Millam, M. Klene, J. E. Knox, J. B. Cross, 
 V. Bakken, C. Adamo, J. Jaramillo, R. Gomperts, R. E. Stratmann, 
 O. Yazyev, A. J. Austin, R. Cammi, C. Pomelli, J. W. Ochterski, 
 R. L. Martin, K. Morokuma, V. G. Zakrzewski, G. A. Voth, 
 P. Salvador, J. J. Dannenberg, S. Dapprich, A. D. Daniels, 
 O. Farkas, J. B. Foresman, J. V. Ortiz, J. Cioslowski, 
 and D. J. Fox, Gaussian, Inc., Wallingford CT, 2013.
 
 ******************************************
 Gaussian 09:  EM64W-G09RevD.01 13-Apr-2013
                28-Jun-2024 
 ******************************************
 %nprocshared=15
 Will use up to   15 processors via shared memory.
 %mem=50GB
 %chk=D:\Yaroslav\pink-mystery\OS1\conf2\OS1_conf2_1100kjm_opt.chk
 ----------------------------------------------------------------------
 # opt freq wb97xd/cc-pvdz scrf=(cpcm,solvent=n,n-DiMethylFormamide) ge
 om=connectivity integral(ultrafinegrid)
 ----------------------------------------------------------------------
 1/14=-1,18=20,19=15,26=4,38=1,57=2/1,3;
 2/9=110,12=2,17=6,18=5,40=1/2;
 3/5=16,11=2,16=1,25=1,30=1,70=2101,71=1,72=148,74=-58,75=-5/1,2,3;
 4//1;
 5/5=2,38=5,53=148/2;
 6/7=2,8=2,9=2,10=2,28=1/1;
 7//1,2,3,16;
 1/14=-1,18=20,19=15,26=4/3(2);
 2/9=110/2;
 99//99;
 2/9=110/2;
 3/5=16,11=2,16=1,25=1,30=1,70=2105,71=1,72=148,74=-58,75=-5/1,2,3;
 4/5=5,16=3,69=1/1;
 5/5=2,38=5,53=148/2;
 7//1,2,3,16;
 1/14=-1,18=20,19=15,26=4/3(-5);
 2/9=110/2;
 6/7=2,8=2,9=2,10=2,19=2,28=1/1;
 99/9=1/99;
 ---------
 OS1_conf2
 ---------
 Symbolic Z-matrix:
 Charge =  0 Multiplicity = 2
 O                     1.3323    0.7346    0.5597 
 C                     2.5919    0.2055    0.0606 
 C                     2.3333   -0.1648   -1.422 
 C                     1.395     0.5606   -2.1891 
 C                     1.1669    0.2649   -3.5355 
 C                     1.872    -0.7632   -4.151 
 C                     2.8024   -1.4952   -3.4203 
 C                     3.0319   -1.1991   -2.0728 
 C                     3.5365    1.4251    0.2673 
 C                     3.8146    1.8722    1.5802 
 C                     4.6285    2.982     1.8131 
 C                     5.1739    3.6801    0.7408 
 C                     4.9037    3.2711   -0.5623 
 C                     4.0898    2.159    -0.799 
 C                     2.9411   -1.0662    0.9362 
 C                     1.8772   -1.8906    1.4636 
 C                     2.1653   -2.8325    2.4828 
 C                     1.0945   -3.5771    3.05 
 C                    -0.2196   -3.4654    2.6075 
 C                    -0.5021   -2.6059    1.5696 
 C                     0.5267   -1.8442    1.0131 
 C                     4.3137   -1.4073    1.2377 
 C                     4.5864   -2.3515    2.2589 
 C                     5.9409   -2.6157    2.6036 
 C                     7.0166   -2.0289    1.9457 
 C                     6.7676   -1.1651    0.9037 
 C                     5.447    -0.8736    0.5588 
 C                     3.5109   -3.0221    2.9122 
 C                     3.8068   -3.9723    4.0405 
 C                     4.0458   -5.3557    3.7611 
 C                     4.3419   -6.2405    4.8242 
 C                     4.5565   -7.6096    4.5107 
 C                     4.4975   -8.1006    3.2074 
 C                     4.2176   -7.2344    2.1691 
 C                     3.9956   -5.8864    2.4445 
 C                     4.4025   -5.7292    6.1559 
 C                     4.7403   -6.6746    7.2962 
 C                     6.1703   -7.1066    7.4906 
 C                     7.2288   -6.2148    7.2651 
 C                     8.5546   -6.6233    7.4327 
 C                     8.8396   -7.9295    7.8229 
 C                     7.8      -8.8295    8.0431 
 C                     6.4744   -8.4215    7.8756 
 C                     3.6397   -7.154     8.2058 
 C                     2.3594   -7.4286    7.7045 
 C                     1.3368   -7.8582    8.5547 
 C                     1.5795   -8.0138    9.9174 
 C                     2.8434   -7.7375    10.4322 
 C                     3.8658   -7.308     9.5826 
 C                     4.1608   -4.352     6.444 
 C                     4.2244   -3.8127    7.7571 
 C                     3.9864   -2.4664    8.0297 
 C                     3.6788   -1.6093    6.9919 
 C                     3.6173   -2.1058    5.6911 
 C                     3.8567   -3.4711    5.3802 
 H                     1.4386    1.6824    0.7353 
 H                     0.8278    1.3721   -1.737 
 H                     0.4359    0.838    -4.1 
 H                     1.6938   -0.9975   -5.1969 
 H                     3.3509   -2.3045   -3.8961 
 H                     3.7617   -1.806    -1.544 
 H                     3.396     1.3432    2.4364 
 H                     4.8364    3.2979    2.8322 
 H                     5.809     4.5436    0.9202 
 H                     5.3274    3.8187   -1.4007 
 H                     3.9084    1.8763   -1.8336 
 H                     1.2769   -4.2874    3.8548 
 H                    -1.0043   -4.0625    3.0621 
 H                    -1.5137   -2.5164    1.1845 
 H                     0.2411   -1.2078    0.1786 
 H                     6.1849   -3.3165    3.4007 
 H                     8.0348   -2.2688    2.2373 
 H                     7.5876   -0.7143    0.3519 
 H                     5.3276   -0.221    -0.3003 
 H                     4.7747   -8.3293    5.2967 
 H                     4.6711   -9.1553    3.0135 
 H                     4.1676   -7.5972    1.1463 
 H                     3.7737   -5.2408    1.596 
 H                     7.0364   -5.1888    6.9606 
 H                     9.3635   -5.9193    7.2554 
 H                     9.8712   -8.2467    7.9506 
 H                     8.0188   -9.8517    8.3407 
 H                     5.68     -9.1468    8.038 
 H                     2.1408   -7.3161    6.6453 
 H                     0.3501   -8.068     8.1501 
 H                     0.7826   -8.3453    10.5778 
 H                     3.0345   -7.8503    11.4961 
 H                     4.8402   -7.0824    10.0107 
 H                     4.4672   -4.4489    8.6053 
 H                     4.0412   -2.0987    9.0504 
 H                     3.4869   -0.5575    7.1837 
 H                     3.3731   -1.3939    4.9042 
 

 GradGradGradGradGradGradGradGradGradGradGradGradGradGradGradGradGradGrad
 Berny optimization.
 Initialization pass.
                           ----------------------------
                           !    Initial Parameters    !
                           ! (Angstroms and Degrees)  !
 --------------------------                            --------------------------
 ! Name  Definition              Value          Derivative Info.                !
 --------------------------------------------------------------------------------
 ! R1    R(1,2)                  1.4545         estimate D2E/DX2                !
 ! R2    R(1,56)                 0.9698         estimate D2E/DX2                !
 ! R3    R(2,3)                  1.5499         estimate D2E/DX2                !
 ! R4    R(2,9)                  1.5564         estimate D2E/DX2                !
 ! R5    R(2,15)                 1.583          estimate D2E/DX2                !
 ! R6    R(3,4)                  1.4125         estimate D2E/DX2                !
 ! R7    R(3,8)                  1.4076         estimate D2E/DX2                !
 ! R8    R(4,5)                  1.3972         estimate D2E/DX2                !
 ! R9    R(4,57)                 1.0884         estimate D2E/DX2                !
 ! R10   R(5,6)                  1.3903         estimate D2E/DX2                !
 ! R11   R(5,58)                 1.087          estimate D2E/DX2                !
 ! R12   R(6,7)                  1.3912         estimate D2E/DX2                !
 ! R13   R(6,59)                 1.0865         estimate D2E/DX2                !
 ! R14   R(7,8)                  1.3986         estimate D2E/DX2                !
 ! R15   R(7,60)                 1.0873         estimate D2E/DX2                !
 ! R16   R(8,61)                 1.0865         estimate D2E/DX2                !
 ! R17   R(9,10)                 1.4145         estimate D2E/DX2                !
 ! R18   R(9,14)                 1.4077         estimate D2E/DX2                !
 ! R19   R(10,11)                1.3958         estimate D2E/DX2                !
 ! R20   R(10,62)                1.09           estimate D2E/DX2                !
 ! R21   R(11,12)                1.3909         estimate D2E/DX2                !
 ! R22   R(11,63)                1.087          estimate D2E/DX2                !
 ! R23   R(12,13)                1.3922         estimate D2E/DX2                !
 ! R24   R(12,64)                1.0868         estimate D2E/DX2                !
 ! R25   R(13,14)                1.3983         estimate D2E/DX2                !
 ! R26   R(13,65)                1.0873         estimate D2E/DX2                !
 ! R27   R(14,66)                1.0878         estimate D2E/DX2                !
 ! R28   R(15,16)                1.4456         estimate D2E/DX2                !
 ! R29   R(15,22)                1.4461         estimate D2E/DX2                !
 ! R30   R(16,17)                1.4174         estimate D2E/DX2                !
 ! R31   R(16,21)                1.4244         estimate D2E/DX2                !
 ! R32   R(17,18)                1.4222         estimate D2E/DX2                !
 ! R33   R(17,28)                1.4251         estimate D2E/DX2                !
 ! R34   R(18,19)                1.3911         estimate D2E/DX2                !
 ! R35   R(18,67)                1.0888         estimate D2E/DX2                !
 ! R36   R(19,20)                1.3769         estimate D2E/DX2                !
 ! R37   R(19,68)                1.0858         estimate D2E/DX2                !
 ! R38   R(20,21)                1.3958         estimate D2E/DX2                !
 ! R39   R(20,69)                1.0861         estimate D2E/DX2                !
 ! R40   R(21,70)                1.0876         estimate D2E/DX2                !
 ! R41   R(22,23)                1.4173         estimate D2E/DX2                !
 ! R42   R(22,27)                1.4248         estimate D2E/DX2                !
 ! R43   R(23,24)                1.4224         estimate D2E/DX2                !
 ! R44   R(23,28)                1.4259         estimate D2E/DX2                !
 ! R45   R(24,25)                1.3908         estimate D2E/DX2                !
 ! R46   R(24,71)                1.089          estimate D2E/DX2                !
 ! R47   R(25,26)                1.3762         estimate D2E/DX2                !
 ! R48   R(25,72)                1.086          estimate D2E/DX2                !
 ! R49   R(26,27)                1.3957         estimate D2E/DX2                !
 ! R50   R(26,73)                1.0863         estimate D2E/DX2                !
 ! R51   R(27,74)                1.0854         estimate D2E/DX2                !
 ! R52   R(28,29)                1.5045         estimate D2E/DX2                !
 ! R53   R(29,30)                1.4314         estimate D2E/DX2                !
 ! R54   R(29,55)                1.4313         estimate D2E/DX2                !
 ! R55   R(30,31)                1.4145         estimate D2E/DX2                !
 ! R56   R(30,35)                1.4204         estimate D2E/DX2                !
 ! R57   R(31,32)                1.4208         estimate D2E/DX2                !
 ! R58   R(31,36)                1.4278         estimate D2E/DX2                !
 ! R59   R(32,33)                1.394          estimate D2E/DX2                !
 ! R60   R(32,75)                1.0878         estimate D2E/DX2                !
 ! R61   R(33,34)                1.3808         estimate D2E/DX2                !
 ! R62   R(33,76)                1.0863         estimate D2E/DX2                !
 ! R63   R(34,35)                1.3936         estimate D2E/DX2                !
 ! R64   R(34,77)                1.0864         estimate D2E/DX2                !
 ! R65   R(35,78)                1.089          estimate D2E/DX2                !
 ! R66   R(36,37)                1.5193         estimate D2E/DX2                !
 ! R67   R(36,50)                1.4276         estimate D2E/DX2                !
 ! R68   R(37,38)                1.5064         estimate D2E/DX2                !
 ! R69   R(37,44)                1.5062         estimate D2E/DX2                !
 ! R70   R(38,39)                1.4023         estimate D2E/DX2                !
 ! R71   R(38,43)                1.4034         estimate D2E/DX2                !
 ! R72   R(39,40)                1.3974         estimate D2E/DX2                !
 ! R73   R(39,79)                1.0874         estimate D2E/DX2                !
 ! R74   R(40,41)                1.3927         estimate D2E/DX2                !
 ! R75   R(40,80)                1.0869         estimate D2E/DX2                !
 ! R76   R(41,42)                1.3926         estimate D2E/DX2                !
 ! R77   R(41,81)                1.0868         estimate D2E/DX2                !
 ! R78   R(42,43)                1.397          estimate D2E/DX2                !
 ! R79   R(42,82)                1.0869         estimate D2E/DX2                !
 ! R80   R(43,83)                1.0879         estimate D2E/DX2                !
 ! R81   R(44,45)                1.4021         estimate D2E/DX2                !
 ! R82   R(44,49)                1.4037         estimate D2E/DX2                !
 ! R83   R(45,46)                1.3975         estimate D2E/DX2                !
 ! R84   R(45,84)                1.0874         estimate D2E/DX2                !
 ! R85   R(46,47)                1.3929         estimate D2E/DX2                !
 ! R86   R(46,85)                1.0869         estimate D2E/DX2                !
 ! R87   R(47,48)                1.3924         estimate D2E/DX2                !
 ! R88   R(47,86)                1.0868         estimate D2E/DX2                !
 ! R89   R(48,49)                1.397          estimate D2E/DX2                !
 ! R90   R(48,87)                1.0868         estimate D2E/DX2                !
 ! R91   R(49,88)                1.0879         estimate D2E/DX2                !
 ! R92   R(50,51)                1.421          estimate D2E/DX2                !
 ! R93   R(50,55)                1.4143         estimate D2E/DX2                !
 ! R94   R(51,52)                1.3941         estimate D2E/DX2                !
 ! R95   R(51,89)                1.0877         estimate D2E/DX2                !
 ! R96   R(52,53)                1.3807         estimate D2E/DX2                !
 ! R97   R(52,90)                1.0863         estimate D2E/DX2                !
 ! R98   R(53,54)                1.3937         estimate D2E/DX2                !
 ! R99   R(53,91)                1.0862         estimate D2E/DX2                !
 ! R100  R(54,55)                1.4206         estimate D2E/DX2                !
 ! R101  R(54,92)                1.0889         estimate D2E/DX2                !
 ! A1    A(2,1,56)             108.828          estimate D2E/DX2                !
 ! A2    A(1,2,3)              105.7036         estimate D2E/DX2                !
 ! A3    A(1,2,9)              101.2425         estimate D2E/DX2                !
 ! A4    A(1,2,15)             107.0654         estimate D2E/DX2                !
 ! A5    A(3,2,9)              114.5524         estimate D2E/DX2                !
 ! A6    A(3,2,15)             111.962          estimate D2E/DX2                !
 ! A7    A(9,2,15)             114.9715         estimate D2E/DX2                !
 ! A8    A(2,3,4)              120.5079         estimate D2E/DX2                !
 ! A9    A(2,3,8)              122.3457         estimate D2E/DX2                !
 ! A10   A(4,3,8)              117.1271         estimate D2E/DX2                !
 ! A11   A(3,4,5)              121.5401         estimate D2E/DX2                !
 ! A12   A(3,4,57)             120.2321         estimate D2E/DX2                !
 ! A13   A(5,4,57)             118.2278         estimate D2E/DX2                !
 ! A14   A(4,5,6)              120.0198         estimate D2E/DX2                !
 ! A15   A(4,5,58)             119.911          estimate D2E/DX2                !
 ! A16   A(6,5,58)             120.069          estimate D2E/DX2                !
 ! A17   A(5,6,7)              119.7183         estimate D2E/DX2                !
 ! A18   A(5,6,59)             120.1608         estimate D2E/DX2                !
 ! A19   A(7,6,59)             120.1202         estimate D2E/DX2                !
 ! A20   A(6,7,8)              120.2908         estimate D2E/DX2                !
 ! A21   A(6,7,60)             119.9455         estimate D2E/DX2                !
 ! A22   A(8,7,60)             119.763          estimate D2E/DX2                !
 ! A23   A(3,8,7)              121.3037         estimate D2E/DX2                !
 ! A24   A(3,8,61)             121.2496         estimate D2E/DX2                !
 ! A25   A(7,8,61)             117.4427         estimate D2E/DX2                !
 ! A26   A(2,9,10)             119.3573         estimate D2E/DX2                !
 ! A27   A(2,9,14)             123.1244         estimate D2E/DX2                !
 ! A28   A(10,9,14)            117.4499         estimate D2E/DX2                !
 ! A29   A(9,10,11)            121.3863         estimate D2E/DX2                !
 ! A30   A(9,10,62)            120.01           estimate D2E/DX2                !
 ! A31   A(11,10,62)           118.6023         estimate D2E/DX2                !
 ! A32   A(10,11,12)           119.938          estimate D2E/DX2                !
 ! A33   A(10,11,63)           119.935          estimate D2E/DX2                !
 ! A34   A(12,11,63)           120.1269         estimate D2E/DX2                !
 ! A35   A(11,12,13)           119.8695         estimate D2E/DX2                !
 ! A36   A(11,12,64)           120.0434         estimate D2E/DX2                !
 ! A37   A(13,12,64)           120.0871         estimate D2E/DX2                !
 ! A38   A(12,13,14)           120.3343         estimate D2E/DX2                !
 ! A39   A(12,13,65)           119.8753         estimate D2E/DX2                !
 ! A40   A(14,13,65)           119.7904         estimate D2E/DX2                !
 ! A41   A(9,14,13)            121.0097         estimate D2E/DX2                !
 ! A42   A(9,14,66)            121.292          estimate D2E/DX2                !
 ! A43   A(13,14,66)           117.6955         estimate D2E/DX2                !
 ! A44   A(2,15,16)            119.8414         estimate D2E/DX2                !
 ! A45   A(2,15,22)            120.9434         estimate D2E/DX2                !
 ! A46   A(16,15,22)           119.2074         estimate D2E/DX2                !
 ! A47   A(15,16,17)           119.4546         estimate D2E/DX2                !
 ! A48   A(15,16,21)           124.3203         estimate D2E/DX2                !
 ! A49   A(17,16,21)           116.2179         estimate D2E/DX2                !
 ! A50   A(16,17,18)           118.7933         estimate D2E/DX2                !
 ! A51   A(16,17,28)           119.8014         estimate D2E/DX2                !
 ! A52   A(18,17,28)           121.4041         estimate D2E/DX2                !
 ! A53   A(17,18,19)           122.8424         estimate D2E/DX2                !
 ! A54   A(17,18,67)           120.6768         estimate D2E/DX2                !
 ! A55   A(19,18,67)           116.4717         estimate D2E/DX2                !
 ! A56   A(18,19,20)           118.929          estimate D2E/DX2                !
 ! A57   A(18,19,68)           120.3554         estimate D2E/DX2                !
 ! A58   A(20,19,68)           120.7044         estimate D2E/DX2                !
 ! A59   A(19,20,21)           119.3379         estimate D2E/DX2                !
 ! A60   A(19,20,69)           120.6514         estimate D2E/DX2                !
 ! A61   A(21,20,69)           120.0106         estimate D2E/DX2                !
 ! A62   A(16,21,20)           123.7067         estimate D2E/DX2                !
 ! A63   A(16,21,70)           120.7093         estimate D2E/DX2                !
 ! A64   A(20,21,70)           115.5728         estimate D2E/DX2                !
 ! A65   A(15,22,23)           119.3395         estimate D2E/DX2                !
 ! A66   A(15,22,27)           124.5598         estimate D2E/DX2                !
 ! A67   A(23,22,27)           116.0922         estimate D2E/DX2                !
 ! A68   A(22,23,24)           118.7878         estimate D2E/DX2                !
 ! A69   A(22,23,28)           119.888          estimate D2E/DX2                !
 ! A70   A(24,23,28)           121.3228         estimate D2E/DX2                !
 ! A71   A(23,24,25)           122.923          estimate D2E/DX2                !
 ! A72   A(23,24,71)           120.68           estimate D2E/DX2                !
 ! A73   A(25,24,71)           116.3877         estimate D2E/DX2                !
 ! A74   A(24,25,26)           118.8849         estimate D2E/DX2                !
 ! A75   A(24,25,72)           120.3286         estimate D2E/DX2                !
 ! A76   A(26,25,72)           120.7714         estimate D2E/DX2                !
 ! A77   A(25,26,27)           119.3015         estimate D2E/DX2                !
 ! A78   A(25,26,73)           120.5635         estimate D2E/DX2                !
 ! A79   A(27,26,73)           120.1349         estimate D2E/DX2                !
 ! A80   A(22,27,26)           123.8232         estimate D2E/DX2                !
 ! A81   A(22,27,74)           120.9861         estimate D2E/DX2                !
 ! A82   A(26,27,74)           115.1661         estimate D2E/DX2                !
 ! A83   A(17,28,23)           120.7673         estimate D2E/DX2                !
 ! A84   A(17,28,29)           119.7156         estimate D2E/DX2                !
 ! A85   A(23,28,29)           119.4909         estimate D2E/DX2                !
 ! A86   A(28,29,30)           119.7912         estimate D2E/DX2                !
 ! A87   A(28,29,55)           119.1877         estimate D2E/DX2                !
 ! A88   A(30,29,55)           121.0186         estimate D2E/DX2                !
 ! A89   A(29,30,31)           119.5245         estimate D2E/DX2                !
 ! A90   A(29,30,35)           122.4191         estimate D2E/DX2                !
 ! A91   A(31,30,35)           118.0563         estimate D2E/DX2                !
 ! A92   A(30,31,32)           117.9396         estimate D2E/DX2                !
 ! A93   A(30,31,36)           119.0709         estimate D2E/DX2                !
 ! A94   A(32,31,36)           122.9878         estimate D2E/DX2                !
 ! A95   A(31,32,33)           122.6365         estimate D2E/DX2                !
 ! A96   A(31,32,75)           120.5556         estimate D2E/DX2                !
 ! A97   A(33,32,75)           116.8077         estimate D2E/DX2                !
 ! A98   A(32,33,34)           119.3833         estimate D2E/DX2                !
 ! A99   A(32,33,76)           120.1384         estimate D2E/DX2                !
 ! A100  A(34,33,76)           120.4783         estimate D2E/DX2                !
 ! A101  A(33,34,35)           119.3705         estimate D2E/DX2                !
 ! A102  A(33,34,77)           120.515          estimate D2E/DX2                !
 ! A103  A(35,34,77)           120.1143         estimate D2E/DX2                !
 ! A104  A(30,35,34)           122.6104         estimate D2E/DX2                !
 ! A105  A(30,35,78)           120.5237         estimate D2E/DX2                !
 ! A106  A(34,35,78)           116.8655         estimate D2E/DX2                !
 ! A107  A(31,36,37)           119.1207         estimate D2E/DX2                !
 ! A108  A(31,36,50)           121.7695         estimate D2E/DX2                !
 ! A109  A(37,36,50)           119.1091         estimate D2E/DX2                !
 ! A110  A(36,37,38)           119.1024         estimate D2E/DX2                !
 ! A111  A(36,37,44)           119.2663         estimate D2E/DX2                !
 ! A112  A(38,37,44)           121.6312         estimate D2E/DX2                !
 ! A113  A(37,38,39)           120.8901         estimate D2E/DX2                !
 ! A114  A(37,38,43)           120.6483         estimate D2E/DX2                !
 ! A115  A(39,38,43)           118.4486         estimate D2E/DX2                !
 ! A116  A(38,39,40)           120.7268         estimate D2E/DX2                !
 ! A117  A(38,39,79)           120.7643         estimate D2E/DX2                !
 ! A118  A(40,39,79)           118.5082         estimate D2E/DX2                !
 ! A119  A(39,40,41)           120.1276         estimate D2E/DX2                !
 ! A120  A(39,40,80)           119.8138         estimate D2E/DX2                !
 ! A121  A(41,40,80)           120.0584         estimate D2E/DX2                !
 ! A122  A(40,41,42)           119.8463         estimate D2E/DX2                !
 ! A123  A(40,41,81)           120.0598         estimate D2E/DX2                !
 ! A124  A(42,41,81)           120.0933         estimate D2E/DX2                !
 ! A125  A(41,42,43)           120.0431         estimate D2E/DX2                !
 ! A126  A(41,42,82)           120.0551         estimate D2E/DX2                !
 ! A127  A(43,42,82)           119.9011         estimate D2E/DX2                !
 ! A128  A(38,43,42)           120.8044         estimate D2E/DX2                !
 ! A129  A(38,43,83)           120.4885         estimate D2E/DX2                !
 ! A130  A(42,43,83)           118.7031         estimate D2E/DX2                !
 ! A131  A(37,44,45)           120.9086         estimate D2E/DX2                !
 ! A132  A(37,44,49)           120.6345         estimate D2E/DX2                !
 ! A133  A(45,44,49)           118.4424         estimate D2E/DX2                !
 ! A134  A(44,45,46)           120.7204         estimate D2E/DX2                !
 ! A135  A(44,45,84)           120.7697         estimate D2E/DX2                !
 ! A136  A(46,45,84)           118.5095         estimate D2E/DX2                !
 ! A137  A(45,46,47)           120.134          estimate D2E/DX2                !
 ! A138  A(45,46,85)           119.8114         estimate D2E/DX2                !
 ! A139  A(47,46,85)           120.0543         estimate D2E/DX2                !
 ! A140  A(46,47,48)           119.8485         estimate D2E/DX2                !
 ! A141  A(46,47,86)           120.0542         estimate D2E/DX2                !
 ! A142  A(48,47,86)           120.0965         estimate D2E/DX2                !
 ! A143  A(47,48,49)           120.0311         estimate D2E/DX2                !
 ! A144  A(47,48,87)           120.0624         estimate D2E/DX2                !
 ! A145  A(49,48,87)           119.9056         estimate D2E/DX2                !
 ! A146  A(44,49,48)           120.8205         estimate D2E/DX2                !
 ! A147  A(44,49,88)           120.495          estimate D2E/DX2                !
 ! A148  A(48,49,88)           118.6802         estimate D2E/DX2                !
 ! A149  A(36,50,51)           123.0272         estimate D2E/DX2                !
 ! A150  A(36,50,55)           119.0439         estimate D2E/DX2                !
 ! A151  A(51,50,55)           117.9256         estimate D2E/DX2                !
 ! A152  A(50,51,52)           122.655          estimate D2E/DX2                !
 ! A153  A(50,51,89)           120.5712         estimate D2E/DX2                !
 ! A154  A(52,51,89)           116.7738         estimate D2E/DX2                !
 ! A155  A(51,52,53)           119.3773         estimate D2E/DX2                !
 ! A156  A(51,52,90)           120.1329         estimate D2E/DX2                !
 ! A157  A(53,52,90)           120.4897         estimate D2E/DX2                !
 ! A158  A(52,53,54)           119.3564         estimate D2E/DX2                !
 ! A159  A(52,53,91)           120.5135         estimate D2E/DX2                !
 ! A160  A(54,53,91)           120.1301         estimate D2E/DX2                !
 ! A161  A(53,54,55)           122.6306         estimate D2E/DX2                !
 ! A162  A(53,54,92)           116.8393         estimate D2E/DX2                !
 ! A163  A(55,54,92)           120.5301         estimate D2E/DX2                !
 ! A164  A(29,55,50)           119.5681         estimate D2E/DX2                !
 ! A165  A(29,55,54)           122.3805         estimate D2E/DX2                !
 ! A166  A(50,55,54)           118.0506         estimate D2E/DX2                !
 ! D1    D(56,1,2,3)          -111.7516         estimate D2E/DX2                !
 ! D2    D(56,1,2,9)             7.982          estimate D2E/DX2                !
 ! D3    D(56,1,2,15)          128.7305         estimate D2E/DX2                !
 ! D4    D(1,2,3,4)             30.7028         estimate D2E/DX2                !
 ! D5    D(1,2,3,8)           -150.9403         estimate D2E/DX2                !
 ! D6    D(9,2,3,4)            -79.8514         estimate D2E/DX2                !
 ! D7    D(9,2,3,8)             98.5054         estimate D2E/DX2                !
 ! D8    D(15,2,3,4)           146.939          estimate D2E/DX2                !
 ! D9    D(15,2,3,8)           -34.7041         estimate D2E/DX2                !
 ! D10   D(1,2,9,10)            65.1844         estimate D2E/DX2                !
 ! D11   D(1,2,9,14)          -111.7287         estimate D2E/DX2                !
 ! D12   D(3,2,9,10)           178.4002         estimate D2E/DX2                !
 ! D13   D(3,2,9,14)             1.4871         estimate D2E/DX2                !
 ! D14   D(15,2,9,10)          -49.8164         estimate D2E/DX2                !
 ! D15   D(15,2,9,14)          133.2705         estimate D2E/DX2                !
 ! D16   D(1,2,15,16)           32.2732         estimate D2E/DX2                !
 ! D17   D(1,2,15,22)         -146.7043         estimate D2E/DX2                !
 ! D18   D(3,2,15,16)          -83.1355         estimate D2E/DX2                !
 ! D19   D(3,2,15,22)           97.887          estimate D2E/DX2                !
 ! D20   D(9,2,15,16)          143.8615         estimate D2E/DX2                !
 ! D21   D(9,2,15,22)          -35.116          estimate D2E/DX2                !
 ! D22   D(2,3,4,5)            178.5311         estimate D2E/DX2                !
 ! D23   D(2,3,4,57)            -1.4572         estimate D2E/DX2                !
 ! D24   D(8,3,4,5)              0.0909         estimate D2E/DX2                !
 ! D25   D(8,3,4,57)          -179.8974         estimate D2E/DX2                !
 ! D26   D(2,3,8,7)           -178.5466         estimate D2E/DX2                !
 ! D27   D(2,3,8,61)             2.2002         estimate D2E/DX2                !
 ! D28   D(4,3,8,7)             -0.1372         estimate D2E/DX2                !
 ! D29   D(4,3,8,61)          -179.3904         estimate D2E/DX2                !
 ! D30   D(3,4,5,6)             -0.0644         estimate D2E/DX2                !
 ! D31   D(3,4,5,58)           179.7829         estimate D2E/DX2                !
 ! D32   D(57,4,5,6)           179.9241         estimate D2E/DX2                !
 ! D33   D(57,4,5,58)           -0.2285         estimate D2E/DX2                !
 ! D34   D(4,5,6,7)              0.0801         estimate D2E/DX2                !
 ! D35   D(4,5,6,59)           179.7744         estimate D2E/DX2                !
 ! D36   D(58,5,6,7)          -179.767          estimate D2E/DX2                !
 ! D37   D(58,5,6,59)           -0.0728         estimate D2E/DX2                !
 ! D38   D(5,6,7,8)             -0.1264         estimate D2E/DX2                !
 ! D39   D(5,6,7,60)           179.5765         estimate D2E/DX2                !
 ! D40   D(59,6,7,8)          -179.8208         estimate D2E/DX2                !
 ! D41   D(59,6,7,60)           -0.1178         estimate D2E/DX2                !
 ! D42   D(6,7,8,3)              0.1582         estimate D2E/DX2                !
 ! D43   D(6,7,8,61)           179.4388         estimate D2E/DX2                !
 ! D44   D(60,7,8,3)          -179.5453         estimate D2E/DX2                !
 ! D45   D(60,7,8,61)           -0.2647         estimate D2E/DX2                !
 ! D46   D(2,9,10,11)         -178.3669         estimate D2E/DX2                !
 ! D47   D(2,9,10,62)            2.0648         estimate D2E/DX2                !
 ! D48   D(14,9,10,11)          -1.28           estimate D2E/DX2                !
 ! D49   D(14,9,10,62)         179.1517         estimate D2E/DX2                !
 ! D50   D(2,9,14,13)          178.1817         estimate D2E/DX2                !
 ! D51   D(2,9,14,66)           -2.4438         estimate D2E/DX2                !
 ! D52   D(10,9,14,13)           1.2134         estimate D2E/DX2                !
 ! D53   D(10,9,14,66)        -179.4121         estimate D2E/DX2                !
 ! D54   D(9,10,11,12)           0.6239         estimate D2E/DX2                !
 ! D55   D(9,10,11,63)        -179.2607         estimate D2E/DX2                !
 ! D56   D(62,10,11,12)       -179.8019         estimate D2E/DX2                !
 ! D57   D(62,10,11,63)          0.3135         estimate D2E/DX2                !
 ! D58   D(10,11,12,13)          0.1388         estimate D2E/DX2                !
 ! D59   D(10,11,12,64)       -179.9128         estimate D2E/DX2                !
 ! D60   D(63,11,12,13)       -179.9769         estimate D2E/DX2                !
 ! D61   D(63,11,12,64)         -0.0285         estimate D2E/DX2                !
 ! D62   D(11,12,13,14)         -0.2005         estimate D2E/DX2                !
 ! D63   D(11,12,13,65)        179.8024         estimate D2E/DX2                !
 ! D64   D(64,12,13,14)        179.8512         estimate D2E/DX2                !
 ! D65   D(64,12,13,65)         -0.146          estimate D2E/DX2                !
 ! D66   D(12,13,14,9)          -0.5005         estimate D2E/DX2                !
 ! D67   D(12,13,14,66)       -179.8969         estimate D2E/DX2                !
 ! D68   D(65,13,14,9)         179.4966         estimate D2E/DX2                !
 ! D69   D(65,13,14,66)          0.1003         estimate D2E/DX2                !
 ! D70   D(2,15,16,17)        -165.6604         estimate D2E/DX2                !
 ! D71   D(2,15,16,21)          15.3557         estimate D2E/DX2                !
 ! D72   D(22,15,16,17)         13.3349         estimate D2E/DX2                !
 ! D73   D(22,15,16,21)       -165.649          estimate D2E/DX2                !
 ! D74   D(2,15,22,23)         165.6207         estimate D2E/DX2                !
 ! D75   D(2,15,22,27)         -15.4825         estimate D2E/DX2                !
 ! D76   D(16,15,22,23)        -13.3632         estimate D2E/DX2                !
 ! D77   D(16,15,22,27)        165.5336         estimate D2E/DX2                !
 ! D78   D(15,16,17,18)        176.1228         estimate D2E/DX2                !
 ! D79   D(15,16,17,28)         -4.2704         estimate D2E/DX2                !
 ! D80   D(21,16,17,18)         -4.8126         estimate D2E/DX2                !
 ! D81   D(21,16,17,28)        174.7942         estimate D2E/DX2                !
 ! D82   D(15,16,21,20)       -177.2028         estimate D2E/DX2                !
 ! D83   D(15,16,21,70)          4.0715         estimate D2E/DX2                !
 ! D84   D(17,16,21,20)          3.7835         estimate D2E/DX2                !
 ! D85   D(17,16,21,70)       -174.9423         estimate D2E/DX2                !
 ! D86   D(16,17,18,19)          2.9387         estimate D2E/DX2                !
 ! D87   D(16,17,18,67)       -178.1947         estimate D2E/DX2                !
 ! D88   D(28,17,18,19)       -176.6615         estimate D2E/DX2                !
 ! D89   D(28,17,18,67)          2.2051         estimate D2E/DX2                !
 ! D90   D(16,17,28,23)         -4.8817         estimate D2E/DX2                !
 ! D91   D(16,17,28,29)        176.9888         estimate D2E/DX2                !
 ! D92   D(18,17,28,23)        174.7146         estimate D2E/DX2                !
 ! D93   D(18,17,28,29)         -3.415          estimate D2E/DX2                !
 ! D94   D(17,18,19,20)          0.4757         estimate D2E/DX2                !
 ! D95   D(17,18,19,68)        179.2659         estimate D2E/DX2                !
 ! D96   D(67,18,19,20)       -178.4353         estimate D2E/DX2                !
 ! D97   D(67,18,19,68)          0.3548         estimate D2E/DX2                !
 ! D98   D(18,19,20,21)         -1.7044         estimate D2E/DX2                !
 ! D99   D(18,19,20,69)        178.3734         estimate D2E/DX2                !
 ! D100  D(68,19,20,21)        179.5098         estimate D2E/DX2                !
 ! D101  D(68,19,20,69)         -0.4124         estimate D2E/DX2                !
 ! D102  D(19,20,21,16)         -0.4835         estimate D2E/DX2                !
 ! D103  D(19,20,21,70)        178.302          estimate D2E/DX2                !
 ! D104  D(69,20,21,16)        179.4393         estimate D2E/DX2                !
 ! D105  D(69,20,21,70)         -1.7753         estimate D2E/DX2                !
 ! D106  D(15,22,23,24)       -176.0796         estimate D2E/DX2                !
 ! D107  D(15,22,23,28)          4.3462         estimate D2E/DX2                !
 ! D108  D(27,22,23,24)          4.932          estimate D2E/DX2                !
 ! D109  D(27,22,23,28)       -174.6422         estimate D2E/DX2                !
 ! D110  D(15,22,27,26)        176.8514         estimate D2E/DX2                !
 ! D111  D(15,22,27,74)         -5.0415         estimate D2E/DX2                !
 ! D112  D(23,22,27,26)         -4.2194         estimate D2E/DX2                !
 ! D113  D(23,22,27,74)        173.8877         estimate D2E/DX2                !
 ! D114  D(22,23,24,25)         -2.7056         estimate D2E/DX2                !
 ! D115  D(22,23,24,71)        178.4441         estimate D2E/DX2                !
 ! D116  D(28,23,24,25)        176.8622         estimate D2E/DX2                !
 ! D117  D(28,23,24,71)         -1.988          estimate D2E/DX2                !
 ! D118  D(22,23,28,17)          4.8418         estimate D2E/DX2                !
 ! D119  D(22,23,28,29)       -177.0245         estimate D2E/DX2                !
 ! D120  D(24,23,28,17)       -174.7213         estimate D2E/DX2                !
 ! D121  D(24,23,28,29)          3.4123         estimate D2E/DX2                !
 ! D122  D(23,24,25,26)         -0.7791         estimate D2E/DX2                !
 ! D123  D(23,24,25,72)       -179.3719         estimate D2E/DX2                !
 ! D124  D(71,24,25,26)        178.1171         estimate D2E/DX2                !
 ! D125  D(71,24,25,72)         -0.4757         estimate D2E/DX2                !
 ! D126  D(24,25,26,27)          1.7026         estimate D2E/DX2                !
 ! D127  D(24,25,26,73)       -178.187          estimate D2E/DX2                !
 ! D128  D(72,25,26,27)       -179.7111         estimate D2E/DX2                !
 ! D129  D(72,25,26,73)          0.3994         estimate D2E/DX2                !
 ! D130  D(25,26,27,22)          0.867          estimate D2E/DX2                !
 ! D131  D(25,26,27,74)       -177.34           estimate D2E/DX2                !
 ! D132  D(73,26,27,22)       -179.2429         estimate D2E/DX2                !
 ! D133  D(73,26,27,74)          2.5501         estimate D2E/DX2                !
 ! D134  D(17,28,29,30)         88.5657         estimate D2E/DX2                !
 ! D135  D(17,28,29,55)        -92.0125         estimate D2E/DX2                !
 ! D136  D(23,28,29,30)        -89.5879         estimate D2E/DX2                !
 ! D137  D(23,28,29,55)         89.8339         estimate D2E/DX2                !
 ! D138  D(28,29,30,31)        179.1209         estimate D2E/DX2                !
 ! D139  D(28,29,30,35)         -0.99           estimate D2E/DX2                !
 ! D140  D(55,29,30,31)         -0.29           estimate D2E/DX2                !
 ! D141  D(55,29,30,35)        179.599          estimate D2E/DX2                !
 ! D142  D(28,29,55,50)       -178.7296         estimate D2E/DX2                !
 ! D143  D(28,29,55,54)          0.9305         estimate D2E/DX2                !
 ! D144  D(30,29,55,50)          0.6849         estimate D2E/DX2                !
 ! D145  D(30,29,55,54)       -179.6551         estimate D2E/DX2                !
 ! D146  D(29,30,31,32)        179.2138         estimate D2E/DX2                !
 ! D147  D(29,30,31,36)         -0.3239         estimate D2E/DX2                !
 ! D148  D(35,30,31,32)         -0.6801         estimate D2E/DX2                !
 ! D149  D(35,30,31,36)        179.7822         estimate D2E/DX2                !
 ! D150  D(29,30,35,34)       -179.4997         estimate D2E/DX2                !
 ! D151  D(29,30,35,78)          0.2665         estimate D2E/DX2                !
 ! D152  D(31,30,35,34)          0.3909         estimate D2E/DX2                !
 ! D153  D(31,30,35,78)       -179.8429         estimate D2E/DX2                !
 ! D154  D(30,31,32,33)          0.5785         estimate D2E/DX2                !
 ! D155  D(30,31,32,75)       -179.2324         estimate D2E/DX2                !
 ! D156  D(36,31,32,33)       -179.9032         estimate D2E/DX2                !
 ! D157  D(36,31,32,75)          0.2859         estimate D2E/DX2                !
 ! D158  D(30,31,36,37)       -179.1199         estimate D2E/DX2                !
 ! D159  D(30,31,36,50)          0.5592         estimate D2E/DX2                !
 ! D160  D(32,31,36,37)          1.3669         estimate D2E/DX2                !
 ! D161  D(32,31,36,50)       -178.954          estimate D2E/DX2                !
 ! D162  D(31,32,33,34)         -0.1368         estimate D2E/DX2                !
 ! D163  D(31,32,33,76)        179.8304         estimate D2E/DX2                !
 ! D164  D(75,32,33,34)        179.6807         estimate D2E/DX2                !
 ! D165  D(75,32,33,76)         -0.3521         estimate D2E/DX2                !
 ! D166  D(32,33,34,35)         -0.1844         estimate D2E/DX2                !
 ! D167  D(32,33,34,77)        179.9716         estimate D2E/DX2                !
 ! D168  D(76,33,34,35)        179.8485         estimate D2E/DX2                !
 ! D169  D(76,33,34,77)          0.0046         estimate D2E/DX2                !
 ! D170  D(33,34,35,30)          0.054          estimate D2E/DX2                !
 ! D171  D(33,34,35,78)       -179.7203         estimate D2E/DX2                !
 ! D172  D(77,34,35,30)        179.8986         estimate D2E/DX2                !
 ! D173  D(77,34,35,78)          0.1243         estimate D2E/DX2                !
 ! D174  D(31,36,37,38)         76.458          estimate D2E/DX2                !
 ! D175  D(31,36,37,44)       -103.6911         estimate D2E/DX2                !
 ! D176  D(50,36,37,38)       -103.2298         estimate D2E/DX2                !
 ! D177  D(50,36,37,44)         76.6211         estimate D2E/DX2                !
 ! D178  D(31,36,50,51)       -179.489          estimate D2E/DX2                !
 ! D179  D(31,36,50,55)         -0.1668         estimate D2E/DX2                !
 ! D180  D(37,36,50,51)          0.1902         estimate D2E/DX2                !
 ! D181  D(37,36,50,55)        179.5124         estimate D2E/DX2                !
 ! D182  D(36,37,38,39)         37.0682         estimate D2E/DX2                !
 ! D183  D(36,37,38,43)       -141.606          estimate D2E/DX2                !
 ! D184  D(44,37,38,39)       -142.779          estimate D2E/DX2                !
 ! D185  D(44,37,38,43)         38.5468         estimate D2E/DX2                !
 ! D186  D(36,37,44,45)         36.6333         estimate D2E/DX2                !
 ! D187  D(36,37,44,49)       -141.9574         estimate D2E/DX2                !
 ! D188  D(38,37,44,45)       -143.5197         estimate D2E/DX2                !
 ! D189  D(38,37,44,49)         37.8896         estimate D2E/DX2                !
 ! D190  D(37,38,39,40)       -179.3132         estimate D2E/DX2                !
 ! D191  D(37,38,39,79)          0.9818         estimate D2E/DX2                !
 ! D192  D(43,38,39,40)         -0.6104         estimate D2E/DX2                !
 ! D193  D(43,38,39,79)        179.6845         estimate D2E/DX2                !
 ! D194  D(37,38,43,42)        179.3193         estimate D2E/DX2                !
 ! D195  D(37,38,43,83)          0.0495         estimate D2E/DX2                !
 ! D196  D(39,38,43,42)          0.6133         estimate D2E/DX2                !
 ! D197  D(39,38,43,83)       -178.6565         estimate D2E/DX2                !
 ! D198  D(38,39,40,41)          0.2403         estimate D2E/DX2                !
 ! D199  D(38,39,40,80)       -179.9033         estimate D2E/DX2                !
 ! D200  D(79,39,40,41)        179.9519         estimate D2E/DX2                !
 ! D201  D(79,39,40,80)         -0.1917         estimate D2E/DX2                !
 ! D202  D(39,40,41,42)          0.1417         estimate D2E/DX2                !
 ! D203  D(39,40,41,81)        179.8527         estimate D2E/DX2                !
 ! D204  D(80,40,41,42)       -179.7144         estimate D2E/DX2                !
 ! D205  D(80,40,41,81)         -0.0034         estimate D2E/DX2                !
 ! D206  D(40,41,42,43)         -0.1392         estimate D2E/DX2                !
 ! D207  D(40,41,42,82)        179.5561         estimate D2E/DX2                !
 ! D208  D(81,41,42,43)       -179.8501         estimate D2E/DX2                !
 ! D209  D(81,41,42,82)         -0.1548         estimate D2E/DX2                !
 ! D210  D(41,42,43,38)         -0.2451         estimate D2E/DX2                !
 ! D211  D(41,42,43,83)        179.0375         estimate D2E/DX2                !
 ! D212  D(82,42,43,38)       -179.9409         estimate D2E/DX2                !
 ! D213  D(82,42,43,83)         -0.6583         estimate D2E/DX2                !
 ! D214  D(37,44,45,46)       -179.2436         estimate D2E/DX2                !
 ! D215  D(37,44,45,84)          1.0079         estimate D2E/DX2                !
 ! D216  D(49,44,45,46)         -0.6227         estimate D2E/DX2                !
 ! D217  D(49,44,45,84)        179.6288         estimate D2E/DX2                !
 ! D218  D(37,44,49,48)        179.2507         estimate D2E/DX2                !
 ! D219  D(37,44,49,88)          0.0189         estimate D2E/DX2                !
 ! D220  D(45,44,49,48)          0.6258         estimate D2E/DX2                !
 ! D221  D(45,44,49,88)       -178.6059         estimate D2E/DX2                !
 ! D222  D(44,45,46,47)          0.2481         estimate D2E/DX2                !
 ! D223  D(44,45,46,85)       -179.9283         estimate D2E/DX2                !
 ! D224  D(84,45,46,47)       -179.9978         estimate D2E/DX2                !
 ! D225  D(84,45,46,85)         -0.1742         estimate D2E/DX2                !
 ! D226  D(45,46,47,48)          0.1386         estimate D2E/DX2                !
 ! D227  D(45,46,47,86)        179.8305         estimate D2E/DX2                !
 ! D228  D(85,46,47,48)       -179.6845         estimate D2E/DX2                !
 ! D229  D(85,46,47,86)          0.0073         estimate D2E/DX2                !
 ! D230  D(46,47,48,49)         -0.136          estimate D2E/DX2                !
 ! D231  D(46,47,48,87)        179.5246         estimate D2E/DX2                !
 ! D232  D(86,47,48,49)       -179.8278         estimate D2E/DX2                !
 ! D233  D(86,47,48,87)         -0.1672         estimate D2E/DX2                !
 ! D234  D(47,48,49,44)         -0.2531         estimate D2E/DX2                !
 ! D235  D(47,48,49,88)        178.9923         estimate D2E/DX2                !
 ! D236  D(87,48,49,44)       -179.9142         estimate D2E/DX2                !
 ! D237  D(87,48,49,88)         -0.6688         estimate D2E/DX2                !
 ! D238  D(36,50,51,52)       -179.9748         estimate D2E/DX2                !
 ! D239  D(36,50,51,89)          0.1053         estimate D2E/DX2                !
 ! D240  D(55,50,51,52)          0.6958         estimate D2E/DX2                !
 ! D241  D(55,50,51,89)       -179.2241         estimate D2E/DX2                !
 ! D242  D(36,50,55,29)         -0.4507         estimate D2E/DX2                !
 ! D243  D(36,50,55,54)        179.8746         estimate D2E/DX2                !
 ! D244  D(51,50,55,29)        178.9062         estimate D2E/DX2                !
 ! D245  D(51,50,55,54)         -0.7685         estimate D2E/DX2                !
 ! D246  D(50,51,52,53)         -0.1777         estimate D2E/DX2                !
 ! D247  D(50,51,52,90)        179.6965         estimate D2E/DX2                !
 ! D248  D(89,51,52,53)        179.7451         estimate D2E/DX2                !
 ! D249  D(89,51,52,90)         -0.3807         estimate D2E/DX2                !
 ! D250  D(51,52,53,54)         -0.2468         estimate D2E/DX2                !
 ! D251  D(51,52,53,91)        179.8075         estimate D2E/DX2                !
 ! D252  D(90,52,53,54)        179.8794         estimate D2E/DX2                !
 ! D253  D(90,52,53,91)         -0.0663         estimate D2E/DX2                !
 ! D254  D(52,53,54,55)          0.1433         estimate D2E/DX2                !
 ! D255  D(52,53,54,92)       -179.8953         estimate D2E/DX2                !
 ! D256  D(91,53,54,55)       -179.9108         estimate D2E/DX2                !
 ! D257  D(91,53,54,92)          0.0507         estimate D2E/DX2                !
 ! D258  D(53,54,55,29)       -179.285          estimate D2E/DX2                !
 ! D259  D(53,54,55,50)          0.3799         estimate D2E/DX2                !
 ! D260  D(92,54,55,29)          0.7548         estimate D2E/DX2                !
 ! D261  D(92,54,55,50)       -179.5802         estimate D2E/DX2                !
 --------------------------------------------------------------------------------
 Trust Radius=3.00D-01 FncErr=1.00D-07 GrdErr=1.00D-06
 Number of steps in this run=    538 maximum allowed number of steps=    552.
 GradGradGradGradGradGradGradGradGradGradGradGradGradGradGradGradGradGrad

 Stoichiometry    C54H37O(2)
 Framework group  C1[X(C54H37O)]
 Deg. of freedom   270
 Full point group                 C1      NOp   1
 Largest Abelian subgroup         C1      NOp   1
 Largest concise Abelian subgroup C1      NOp   1
                         Standard orientation:                         
 ---------------------------------------------------------------------
 Center     Atomic      Atomic             Coordinates (Angstroms)
 Number     Number       Type             X           Y           Z
 ---------------------------------------------------------------------
      1          8           0        5.175941   -1.105280   -1.686114
      2          6           0        4.998413   -0.268120   -0.509982
      3          6           0        5.890761   -0.896251    0.590593
      4          6           0        7.080953   -1.575234    0.247841
      5          6           0        7.916878   -2.123222    1.224161
      6          6           0        7.585546   -2.005646    2.569297
      7          6           0        6.419142   -1.342475    2.936850
      8          6           0        5.582446   -0.792884    1.960125
      9          6           0        5.496594    1.108182   -1.039157
     10          6           0        4.776803    1.756680   -2.069835
     11          6           0        5.204267    2.975426   -2.599236
     12          6           0        6.367539    3.569871   -2.121676
     13          6           0        7.103838    2.945479   -1.118503
     14          6           0        6.677671    1.725175   -0.585149
     15          6           0        3.462847   -0.321614   -0.129179
     16          6           0        2.700834   -1.524007   -0.380687
     17          6           0        1.285229   -1.475602   -0.329047
     18          6           0        0.547268   -2.645407   -0.660299
     19          6           0        1.154680   -3.856259   -0.976572
     20          6           0        2.529158   -3.935970   -0.961135
     21          6           0        3.277069   -2.795285   -0.664868
     22          6           0        2.799816    0.825935    0.449443
     23          6           0        1.383658    0.859887    0.494981
     24          6           0        0.742035    2.029341    0.988931
     25          6           0        1.442674    3.124843    1.482163
     26          6           0        2.817709    3.076331    1.511160
     27          6           0        3.472032    1.948361    1.013708
     28          6           0        0.631419   -0.270005    0.058303
     29          6           0       -0.871393   -0.199824    0.047070
     30          6           0       -1.610252   -0.589221    1.209584
     31          6           0       -3.022074   -0.503297    1.199340
     32          6           0       -3.722530   -0.914540    2.365106
     33          6           0       -3.073218   -1.382000    3.506609
     34          6           0       -1.694460   -1.456735    3.519091
     35          6           0       -0.978552   -1.066985    2.388691
     36          6           0       -3.679287   -0.021495    0.026965
     37          6           0       -5.194426    0.090318    0.021861
     38          6           0       -5.847086    1.235073    0.751852
     39          6           0       -5.262862    2.509899    0.760749
     40          6           0       -5.863871    3.565924    1.450900
     41          6           0       -7.053627    3.360187    2.145012
     42          6           0       -7.642302    2.098180    2.152498
     43          6           0       -7.041726    1.042150    1.462682
     44          6           0       -6.006484   -0.942492   -0.714606
     45          6           0       -5.614376   -2.288529   -0.732221
     46          6           0       -6.362242   -3.240918   -1.429902
     47          6           0       -7.508507   -2.859152   -2.123008
     48          6           0       -7.906875   -1.524945   -2.121974
     49          6           0       -7.159486   -0.572677   -1.424703
     50          6           0       -2.950490    0.364416   -1.138379
     51          6           0       -3.576083    0.857126   -2.315236
     52          6           0       -2.856696    1.231328   -3.449226
     53          6           0       -1.479901    1.128079   -3.442530
     54          6           0       -0.835648    0.656566   -2.300169
     55          6           0       -1.539447    0.269603   -1.128443
     56          1           0        5.651187   -0.598124   -2.362423
     57          1           0        7.369057   -1.683219   -0.796179
     58          1           0        8.824892   -2.643487    0.930392
     59          1           0        8.232047   -2.434092    3.330236
     60          1           0        6.152928   -1.254362    3.987360
     61          1           0        4.678805   -0.293259    2.298314
     62          1           0        3.863933    1.308690   -2.462413
     63          1           0        4.626379    3.459068   -3.382636
     64          1           0        6.701184    4.519485   -2.531657
     65          1           0        8.014963    3.408516   -0.747357
     66          1           0        7.284591    1.276199    0.197980
     67          1           0       -0.541481   -2.634264   -0.659207
     68          1           0        0.551399   -4.727802   -1.211964
     69          1           0        3.031870   -4.874051   -1.177771
     70          1           0        4.355568   -2.934033   -0.641354
     71          1           0       -0.344527    2.098469    1.014045
     72          1           0        0.909292    3.992672    1.858580
     73          1           0        3.391207    3.904486    1.917807
     74          1           0        4.553069    1.961619    1.110555
     75          1           0       -4.809220   -0.878095    2.399046
     76          1           0       -3.649271   -1.683454    4.376905
     77          1           0       -1.169537   -1.817827    4.399040
     78          1           0        0.106256   -1.147026    2.441392
     79          1           0       -4.334768    2.700145    0.227024
     80          1           0       -5.398987    4.548388    1.446602
     81          1           0       -7.518842    4.181690    2.683371
     82          1           0       -8.566978    1.932078    2.699046
     83          1           0       -7.511872    0.061669    1.496209
     84          1           0       -4.724216   -2.615630   -0.200276
     85          1           0       -6.045376   -4.280573   -1.432705
     86          1           0       -8.087569   -3.600370   -2.667390
     87          1           0       -8.796359   -1.221931   -2.667984
     88          1           0       -7.481393    0.466184   -1.452349
     89          1           0       -4.657804    0.959715   -2.365240
     90          1           0       -3.377613    1.598368   -4.328977
     91          1           0       -0.901311    1.411547   -4.317044
     92          1           0        0.250696    0.593429   -2.339116
 ---------------------------------------------------------------------
 Rotational constants (GHZ):      0.1037756      0.0272938      0.0263636
 Standard basis: CC-pVDZ (5D, 7F)
 There are  1010 symmetry adapted cartesian basis functions of A   symmetry.
 There are   955 symmetry adapted basis functions of A   symmetry.
   955 basis functions,  2074 primitive gaussians,  1010 cartesian basis functions
   185 alpha electrons      184 beta electrons
       nuclear repulsion energy      6824.5378232241 Hartrees.
 NAtoms=   92 NActive=   92 NUniq=   92 SFac= 1.00D+00 NAtFMM=   60 NAOKFM=T Big=T
 Integral buffers will be    131072 words long.
 Raffenetti 2 integral format.
 Two-electron integral symmetry is turned on.
 Nuclear repulsion after empirical dispersion term =     6824.4443349033 Hartrees.
 ------------------------------------------------------------------------------
 Polarizable Continuum Model (PCM)
 =================================
 Model                : C-PCM.
 Atomic radii         : UFF (Universal Force Field).
 Polarization charges : Total charges.
 Charge compensation  : None.
 Solution method      : On-the-fly selection.
 Cavity type          : Scaled VdW (van der Waals Surface) (Alpha=1.100).
 Cavity algorithm     : GePol (No added spheres)
                        Default sphere list used, NSphG=   92.
                        Lebedev-Laikov grids with approx.  5.0 points / Ang**2.
                        Smoothing algorithm: Karplus/York (Gamma=1.0000).
                        Polarization charges: spherical gaussians, with
                                              point-specific exponents (IZeta= 3).
                        Self-potential: point-specific (ISelfS= 7).
                        Self-field    : sphere-specific E.n sum rule (ISelfD= 2).
 1st derivatives      : Analytical E(r).r(x)/FMM algorithm (CHGder, D1EAlg=3).
                        Cavity 1st derivative terms included.
 Solvent              : n,n-DiMethylFormamide, Eps=  37.219000 Eps(inf)=   2.046330
 ------------------------------------------------------------------------------
 One-electron integrals computed using PRISM.
 NBasis=   955 RedAO= T EigKep=  5.71D-05  NBF=   955
 NBsUse=   955 1.00D-06 EigRej= -1.00D+00 NBFU=   955
 ExpMin= 1.22D-01 ExpMax= 1.17D+04 ExpMxC= 4.01D+02 IAcc=3 IRadAn=         5 AccDes= 0.00D+00
 Harris functional with IExCor= 4639 and IRadAn=       5 diagonalized for initial guess.
 HarFok:  IExCor= 4639 AccDes= 0.00D+00 IRadAn=         5 IDoV= 1 UseB2=F ITyADJ=14
 ICtDFT=  3500011 ScaDFX=  1.000000  1.000000  1.000000  1.000000
 FoFCou: FMM=F IPFlag=           0 FMFlag=      100000 FMFlg1=        2001
         NFxFlg=           0 DoJE=T BraDBF=F KetDBF=T FulRan=T
         wScrn=  0.000000 ICntrl=     500 IOpCl=  0 I1Cent=   200000004 NGrid=           0
         NMat0=    1 NMatS0=      1 NMatT0=    0 NMatD0=    1 NMtDS0=    0 NMtDT0=    0
 Petite list used in FoFCou.
 Initial guess <Sx>= 0.0000 <Sy>= 0.0000 <Sz>= 0.5000 <S**2>= 0.7500 S= 0.5000
 Requested convergence on RMS density matrix=1.00D-08 within 128 cycles.
 Requested convergence on MAX density matrix=1.00D-06.
 Requested convergence on             energy=1.00D-06.
 No special actions if energy rises.
 Inv3:  Mode=1 IEnd=   117150003.
 Iteration    1 A*A^-1 deviation from unit magnitude is 6.11D-15 for    861.
 Iteration    1 A*A^-1 deviation from orthogonality  is 5.34D-15 for   4391     88.
 Iteration    1 A^-1*A deviation from unit magnitude is 4.66D-15 for   4613.
 Iteration    1 A^-1*A deviation from orthogonality  is 2.80D-15 for   2577    745.
 Restarting incremental Fock formation.
 Error on total polarization charges =  0.01923
 SCF Done:  E(UwB97XD) =  -2154.66708689     A.U. after   29 cycles
            NFock= 29  Conv=0.80D-08     -V/T= 2.0070
 <Sx>= 0.0000 <Sy>= 0.0000 <Sz>= 0.5000 <S**2>= 0.7894 S= 0.5195
 <L.S>= 0.000000000000E+00
 Annihilation of the first spin contaminant:
 S**2 before annihilation     0.7894,   after     0.7515

 **********************************************************************

            Population analysis using the SCF density.

 **********************************************************************

 Orbital symmetries:
 Alpha Orbitals:
       Occupied  (A) (A) (A) (A) (A) (A) (A) (A) (A) (A) (A) (A)
                 (A) (A) (A) (A) (A) (A) (A) (A) (A) (A) (A) (A)
                 (A) (A) (A) (A) (A) (A) (A) (A) (A) (A) (A) (A)
                 (A) (A) (A) (A) (A) (A) (A) (A) (A) (A) (A) (A)
                 (A) (A) (A) (A) (A) (A) (A) (A) (A) (A) (A) (A)
                 (A) (A) (A) (A) (A) (A) (A) (A) (A) (A) (A) (A)
                 (A) (A) (A) (A) (A) (A) (A) (A) (A) (A) (A) (A)
                 (A) (A) (A) (A) (A) (A) (A) (A) (A) (A) (A) (A)
                 (A) (A) (A) (A) (A) (A) (A) (A) (A) (A) (A) (A)
                 (A) (A) (A) (A) (A) (A) (A) (A) (A) (A) (A) (A)
                 (A) (A) (A) (A) (A) (A) (A) (A) (A) (A) (A) (A)
                 (A) (A) (A) (A) (A) (A) (A) (A) (A) (A) (A) (A)
                 (A) (A) (A) (A) (A) (A) (A) (A) (A) (A) (A) (A)
                 (A) (A) (A) (A) (A) (A) (A) (A) (A) (A) (A) (A)
                 (A) (A) (A) (A) (A) (A) (A) (A) (A) (A) (A) (A)
                 (A) (A) (A) (A) (A)
       Virtual   (A) (A) (A) (A) (A) (A) (A) (A) (A) (A) (A) (A)
                 (A) (A) (A) (A) (A) (A) (A) (A) (A) (A) (A) (A)
                 (A) (A) (A) (A) (A) (A) (A) (A) (A) (A) (A) (A)
                 (A) (A) (A) (A) (A) (A) (A) (A) (A) (A) (A) (A)
                 (A) (A) (A) (A) (A) (A) (A) (A) (A) (A) (A) (A)
                 (A) (A) (A) (A) (A) (A) (A) (A) (A) (A) (A) (A)
                 (A) (A) (A) (A) (A) (A) (A) (A) (A) (A) (A) (A)
                 (A) (A) (A) (A) (A) (A) (A) (A) (A) (A) (A) (A)
                 (A) (A) (A) (A) (A) (A) (A) (A) (A) (A) (A) (A)
                 (A) (A) (A) (A) (A) (A) (A) (A) (A) (A) (A) (A)
                 (A) (A) (A) (A) (A) (A) (A) (A) (A) (A) (A) (A)
                 (A) (A) (A) (A) (A) (A) (A) (A) (A) (A) (A) (A)
                 (A) (A) (A) (A) (A) (A) (A) (A) (A) (A) (A) (A)
                 (A) (A) (A) (A) (A) (A) (A) (A) (A) (A) (A) (A)
                 (A) (A) (A) (A) (A) (A) (A) (A) (A) (A) (A) (A)
                 (A) (A) (A) (A) (A) (A) (A) (A) (A) (A) (A) (A)
                 (A) (A) (A) (A) (A) (A) (A) (A) (A) (A) (A) (A)
                 (A) (A) (A) (A) (A) (A) (A) (A) (A) (A) (A) (A)
                 (A) (A) (A) (A) (A) (A) (A) (A) (A) (A) (A) (A)
                 (A) (A) (A) (A) (A) (A) (A) (A) (A) (A) (A) (A)
                 (A) (A) (A) (A) (A) (A) (A) (A) (A) (A) (A) (A)
                 (A) (A) (A) (A) (A) (A) (A) (A) (A) (A) (A) (A)
                 (A) (A) (A) (A) (A) (A) (A) (A) (A) (A) (A) (A)
                 (A) (A) (A) (A) (A) (A) (A) (A) (A) (A) (A) (A)
                 (A) (A) (A) (A) (A) (A) (A) (A) (A) (A) (A) (A)
                 (A) (A) (A) (A) (A) (A) (A) (A) (A) (A) (A) (A)
                 (A) (A) (A) (A) (A) (A) (A) (A) (A) (A) (A) (A)
                 (A) (A) (A) (A) (A) (A) (A) (A) (A) (A) (A) (A)
                 (A) (A) (A) (A) (A) (A) (A) (A) (A) (A) (A) (A)
                 (A) (A) (A) (A) (A) (A) (A) (A) (A) (A) (A) (A)
                 (A) (A) (A) (A) (A) (A) (A) (A) (A) (A) (A) (A)
                 (A) (A) (A) (A) (A) (A) (A) (A) (A) (A) (A) (A)
                 (A) (A) (A) (A) (A) (A) (A) (A) (A) (A) (A) (A)
                 (A) (A) (A) (A) (A) (A) (A) (A) (A) (A) (A) (A)
                 (A) (A) (A) (A) (A) (A) (A) (A) (A) (A) (A) (A)
                 (A) (A) (A) (A) (A) (A) (A) (A) (A) (A) (A) (A)
                 (A) (A) (A) (A) (A) (A) (A) (A) (A) (A) (A) (A)
                 (A) (A) (A) (A) (A) (A) (A) (A) (A) (A) (A) (A)
                 (A) (A) (A) (A) (A) (A) (A) (A) (A) (A) (A) (A)
                 (A) (A) (A) (A) (A) (A) (A) (A) (A) (A) (A) (A)
                 (A) (A) (A) (A) (A) (A) (A) (A) (A) (A) (A) (A)
                 (A) (A) (A) (A) (A) (A) (A) (A) (A) (A) (A) (A)
                 (A) (A) (A) (A) (A) (A) (A) (A) (A) (A) (A) (A)
                 (A) (A) (A) (A) (A) (A) (A) (A) (A) (A) (A) (A)
                 (A) (A) (A) (A) (A) (A) (A) (A) (A) (A) (A) (A)
                 (A) (A) (A) (A) (A) (A) (A) (A) (A) (A) (A) (A)
                 (A) (A) (A) (A) (A) (A) (A) (A) (A) (A) (A) (A)
                 (A) (A) (A) (A) (A) (A) (A) (A) (A) (A) (A) (A)
                 (A) (A) (A) (A) (A) (A) (A) (A) (A) (A) (A) (A)
                 (A) (A) (A) (A) (A) (A) (A) (A) (A) (A) (A) (A)
                 (A) (A) (A) (A) (A) (A) (A) (A) (A) (A) (A) (A)
                 (A) (A) (A) (A) (A) (A) (A) (A) (A) (A) (A) (A)
                 (A) (A) (A) (A) (A) (A) (A) (A) (A) (A) (A) (A)
                 (A) (A) (A) (A) (A) (A) (A) (A) (A) (A) (A) (A)
                 (A) (A) (A) (A) (A) (A) (A) (A) (A) (A) (A) (A)
                 (A) (A) (A) (A) (A) (A) (A) (A) (A) (A) (A) (A)
                 (A) (A) (A) (A) (A) (A) (A) (A) (A) (A) (A) (A)
                 (A) (A) (A) (A) (A) (A) (A) (A) (A) (A) (A) (A)
                 (A) (A) (A) (A) (A) (A) (A) (A) (A) (A) (A) (A)
                 (A) (A) (A) (A) (A) (A) (A) (A) (A) (A) (A) (A)
                 (A) (A) (A) (A) (A) (A) (A) (A) (A) (A) (A) (A)
                 (A) (A) (A) (A) (A) (A) (A) (A) (A) (A) (A) (A)
                 (A) (A) (A) (A) (A) (A) (A) (A) (A) (A) (A) (A)
                 (A) (A) (A) (A) (A) (A) (A) (A) (A) (A) (A) (A)
                 (A) (A)
 Beta  Orbitals:
       Occupied  (A) (A) (A) (A) (A) (A) (A) (A) (A) (A) (A) (A)
                 (A) (A) (A) (A) (A) (A) (A) (A) (A) (A) (A) (A)
                 (A) (A) (A) (A) (A) (A) (A) (A) (A) (A) (A) (A)
                 (A) (A) (A) (A) (A) (A) (A) (A) (A) (A) (A) (A)
                 (A) (A) (A) (A) (A) (A) (A) (A) (A) (A) (A) (A)
                 (A) (A) (A) (A) (A) (A) (A) (A) (A) (A) (A) (A)
                 (A) (A) (A) (A) (A) (A) (A) (A) (A) (A) (A) (A)
                 (A) (A) (A) (A) (A) (A) (A) (A) (A) (A) (A) (A)
                 (A) (A) (A) (A) (A) (A) (A) (A) (A) (A) (A) (A)
                 (A) (A) (A) (A) (A) (A) (A) (A) (A) (A) (A) (A)
                 (A) (A) (A) (A) (A) (A) (A) (A) (A) (A) (A) (A)
                 (A) (A) (A) (A) (A) (A) (A) (A) (A) (A) (A) (A)
                 (A) (A) (A) (A) (A) (A) (A) (A) (A) (A) (A) (A)
                 (A) (A) (A) (A) (A) (A) (A) (A) (A) (A) (A) (A)
                 (A) (A) (A) (A) (A) (A) (A) (A) (A) (A) (A) (A)
                 (A) (A) (A) (A)
       Virtual   (A) (A) (A) (A) (A) (A) (A) (A) (A) (A) (A) (A)
                 (A) (A) (A) (A) (A) (A) (A) (A) (A) (A) (A) (A)
                 (A) (A) (A) (A) (A) (A) (A) (A) (A) (A) (A) (A)
                 (A) (A) (A) (A) (A) (A) (A) (A) (A) (A) (A) (A)
                 (A) (A) (A) (A) (A) (A) (A) (A) (A) (A) (A) (A)
                 (A) (A) (A) (A) (A) (A) (A) (A) (A) (A) (A) (A)
                 (A) (A) (A) (A) (A) (A) (A) (A) (A) (A) (A) (A)
                 (A) (A) (A) (A) (A) (A) (A) (A) (A) (A) (A) (A)
                 (A) (A) (A) (A) (A) (A) (A) (A) (A) (A) (A) (A)
                 (A) (A) (A) (A) (A) (A) (A) (A) (A) (A) (A) (A)
                 (A) (A) (A) (A) (A) (A) (A) (A) (A) (A) (A) (A)
                 (A) (A) (A) (A) (A) (A) (A) (A) (A) (A) (A) (A)
                 (A) (A) (A) (A) (A) (A) (A) (A) (A) (A) (A) (A)
                 (A) (A) (A) (A) (A) (A) (A) (A) (A) (A) (A) (A)
                 (A) (A) (A) (A) (A) (A) (A) (A) (A) (A) (A) (A)
                 (A) (A) (A) (A) (A) (A) (A) (A) (A) (A) (A) (A)
                 (A) (A) (A) (A) (A) (A) (A) (A) (A) (A) (A) (A)
                 (A) (A) (A) (A) (A) (A) (A) (A) (A) (A) (A) (A)
                 (A) (A) (A) (A) (A) (A) (A) (A) (A) (A) (A) (A)
                 (A) (A) (A) (A) (A) (A) (A) (A) (A) (A) (A) (A)
                 (A) (A) (A) (A) (A) (A) (A) (A) (A) (A) (A) (A)
                 (A) (A) (A) (A) (A) (A) (A) (A) (A) (A) (A) (A)
                 (A) (A) (A) (A) (A) (A) (A) (A) (A) (A) (A) (A)
                 (A) (A) (A) (A) (A) (A) (A) (A) (A) (A) (A) (A)
                 (A) (A) (A) (A) (A) (A) (A) (A) (A) (A) (A) (A)
                 (A) (A) (A) (A) (A) (A) (A) (A) (A) (A) (A) (A)
                 (A) (A) (A) (A) (A) (A) (A) (A) (A) (A) (A) (A)
                 (A) (A) (A) (A) (A) (A) (A) (A) (A) (A) (A) (A)
                 (A) (A) (A) (A) (A) (A) (A) (A) (A) (A) (A) (A)
                 (A) (A) (A) (A) (A) (A) (A) (A) (A) (A) (A) (A)
                 (A) (A) (A) (A) (A) (A) (A) (A) (A) (A) (A) (A)
                 (A) (A) (A) (A) (A) (A) (A) (A) (A) (A) (A) (A)
                 (A) (A) (A) (A) (A) (A) (A) (A) (A) (A) (A) (A)
                 (A) (A) (A) (A) (A) (A) (A) (A) (A) (A) (A) (A)
                 (A) (A) (A) (A) (A) (A) (A) (A) (A) (A) (A) (A)
                 (A) (A) (A) (A) (A) (A) (A) (A) (A) (A) (A) (A)
                 (A) (A) (A) (A) (A) (A) (A) (A) (A) (A) (A) (A)
                 (A) (A) (A) (A) (A) (A) (A) (A) (A) (A) (A) (A)
                 (A) (A) (A) (A) (A) (A) (A) (A) (A) (A) (A) (A)
                 (A) (A) (A) (A) (A) (A) (A) (A) (A) (A) (A) (A)
                 (A) (A) (A) (A) (A) (A) (A) (A) (A) (A) (A) (A)
                 (A) (A) (A) (A) (A) (A) (A) (A) (A) (A) (A) (A)
                 (A) (A) (A) (A) (A) (A) (A) (A) (A) (A) (A) (A)
                 (A) (A) (A) (A) (A) (A) (A) (A) (A) (A) (A) (A)
                 (A) (A) (A) (A) (A) (A) (A) (A) (A) (A) (A) (A)
                 (A) (A) (A) (A) (A) (A) (A) (A) (A) (A) (A) (A)
                 (A) (A) (A) (A) (A) (A) (A) (A) (A) (A) (A) (A)
                 (A) (A) (A) (A) (A) (A) (A) (A) (A) (A) (A) (A)
                 (A) (A) (A) (A) (A) (A) (A) (A) (A) (A) (A) (A)
                 (A) (A) (A) (A) (A) (A) (A) (A) (A) (A) (A) (A)
                 (A) (A) (A) (A) (A) (A) (A) (A) (A) (A) (A) (A)
                 (A) (A) (A) (A) (A) (A) (A) (A) (A) (A) (A) (A)
                 (A) (A) (A) (A) (A) (A) (A) (A) (A) (A) (A) (A)
                 (A) (A) (A) (A) (A) (A) (A) (A) (A) (A) (A) (A)
                 (A) (A) (A) (A) (A) (A) (A) (A) (A) (A) (A) (A)
                 (A) (A) (A) (A) (A) (A) (A) (A) (A) (A) (A) (A)
                 (A) (A) (A) (A) (A) (A) (A) (A) (A) (A) (A) (A)
                 (A) (A) (A) (A) (A) (A) (A) (A) (A) (A) (A) (A)
                 (A) (A) (A) (A) (A) (A) (A) (A) (A) (A) (A) (A)
                 (A) (A) (A) (A) (A) (A) (A) (A) (A) (A) (A) (A)
                 (A) (A) (A) (A) (A) (A) (A) (A) (A) (A) (A) (A)
                 (A) (A) (A) (A) (A) (A) (A) (A) (A) (A) (A) (A)
                 (A) (A) (A) (A) (A) (A) (A) (A) (A) (A) (A) (A)
                 (A) (A) (A) (A) (A) (A) (A) (A) (A) (A) (A) (A)
                 (A) (A) (A)
 The electronic state is 2-A.
 Alpha  occ. eigenvalues --  -19.26834 -10.39001 -10.33487 -10.33357 -10.32840
 Alpha  occ. eigenvalues --  -10.32834 -10.32667 -10.32667 -10.32604 -10.32458
 Alpha  occ. eigenvalues --  -10.32297 -10.32293 -10.32216 -10.32215 -10.32214
 Alpha  occ. eigenvalues --  -10.32205 -10.32179 -10.32122 -10.31942 -10.31194
 Alpha  occ. eigenvalues --  -10.31059 -10.31015 -10.31010 -10.31006 -10.31005
 Alpha  occ. eigenvalues --  -10.30936 -10.30908 -10.30896 -10.30863 -10.30846
 Alpha  occ. eigenvalues --  -10.30845 -10.30845 -10.30845 -10.30811 -10.30810
 Alpha  occ. eigenvalues --  -10.30768 -10.30768 -10.30765 -10.30741 -10.30722
 Alpha  occ. eigenvalues --  -10.30712 -10.30656 -10.30649 -10.30647 -10.30622
 Alpha  occ. eigenvalues --  -10.30621 -10.30583 -10.30573 -10.30572 -10.30566
 Alpha  occ. eigenvalues --  -10.30550 -10.30549 -10.30501 -10.30435 -10.30422
 Alpha  occ. eigenvalues --   -1.13241  -1.00714  -0.99340  -0.97476  -0.96821
 Alpha  occ. eigenvalues --   -0.96594  -0.96369  -0.96260  -0.96100  -0.92605
 Alpha  occ. eigenvalues --   -0.92046  -0.91337  -0.89337  -0.87767  -0.86446
 Alpha  occ. eigenvalues --   -0.85775  -0.85735  -0.85514  -0.85472  -0.85369
 Alpha  occ. eigenvalues --   -0.85197  -0.85131  -0.84944  -0.84837  -0.84733
 Alpha  occ. eigenvalues --   -0.81412  -0.80679  -0.78903  -0.76114  -0.75247
 Alpha  occ. eigenvalues --   -0.75073  -0.71755  -0.71701  -0.71607  -0.70856
 Alpha  occ. eigenvalues --   -0.70655  -0.70452  -0.70058  -0.69836  -0.69743
 Alpha  occ. eigenvalues --   -0.69455  -0.69269  -0.68086  -0.66430  -0.65094
 Alpha  occ. eigenvalues --   -0.63712  -0.63303  -0.63120  -0.62606  -0.61615
 Alpha  occ. eigenvalues --   -0.61494  -0.60982  -0.60598  -0.59343  -0.57683
 Alpha  occ. eigenvalues --   -0.57318  -0.56033  -0.56001  -0.55701  -0.55656
 Alpha  occ. eigenvalues --   -0.55461  -0.55389  -0.55368  -0.55023  -0.54474
 Alpha  occ. eigenvalues --   -0.54187  -0.54133  -0.53831  -0.53263  -0.53168
 Alpha  occ. eigenvalues --   -0.52291  -0.52187  -0.51865  -0.51486  -0.51293
 Alpha  occ. eigenvalues --   -0.50984  -0.50914  -0.50843  -0.50776  -0.50582
 Alpha  occ. eigenvalues --   -0.50379  -0.50276  -0.49731  -0.49251  -0.48725
 Alpha  occ. eigenvalues --   -0.48554  -0.48073  -0.47501  -0.46815  -0.46637
 Alpha  occ. eigenvalues --   -0.46598  -0.46298  -0.46193  -0.46042  -0.45740
 Alpha  occ. eigenvalues --   -0.45231  -0.44311  -0.43955  -0.43434  -0.43265
 Alpha  occ. eigenvalues --   -0.43226  -0.43176  -0.42690  -0.42560  -0.42508
 Alpha  occ. eigenvalues --   -0.42366  -0.42262  -0.42135  -0.40995  -0.40019
 Alpha  occ. eigenvalues --   -0.39556  -0.39254  -0.37779  -0.37360  -0.37339
 Alpha  occ. eigenvalues --   -0.37204  -0.34666  -0.34153  -0.34069  -0.33894
 Alpha  occ. eigenvalues --   -0.33573  -0.33474  -0.33269  -0.32956  -0.32750
 Alpha  occ. eigenvalues --   -0.32599  -0.32067  -0.26948  -0.26095  -0.25056
 Alpha virt. eigenvalues --   -0.02817  -0.02700   0.03408   0.04070   0.04383
 Alpha virt. eigenvalues --    0.04740   0.04789   0.05087   0.05427   0.06150
 Alpha virt. eigenvalues --    0.06176   0.06328   0.06595   0.07591   0.09252
 Alpha virt. eigenvalues --    0.10524   0.12288   0.12598   0.13171   0.13747
 Alpha virt. eigenvalues --    0.14643   0.14928   0.15091   0.15322   0.15622
 Alpha virt. eigenvalues --    0.15746   0.16699   0.16737   0.17440   0.17740
 Alpha virt. eigenvalues --    0.18057   0.18450   0.19016   0.19199   0.19514
 Alpha virt. eigenvalues --    0.19748   0.20311   0.20511   0.20695   0.20813
 Alpha virt. eigenvalues --    0.20968   0.21596   0.21782   0.21907   0.22093
 Alpha virt. eigenvalues --    0.22302   0.22469   0.22530   0.22739   0.22789
 Alpha virt. eigenvalues --    0.23160   0.23597   0.23721   0.23984   0.24331
 Alpha virt. eigenvalues --    0.24882   0.24969   0.25194   0.25487   0.25806
 Alpha virt. eigenvalues --    0.26089   0.26532   0.26983   0.27524   0.28234
 Alpha virt. eigenvalues --    0.29074   0.29931   0.30003   0.30228   0.30727
 Alpha virt. eigenvalues --    0.31470   0.31772   0.33195   0.33526   0.34023
 Alpha virt. eigenvalues --    0.34110   0.34413   0.34898   0.35427   0.35716
 Alpha virt. eigenvalues --    0.35906   0.36036   0.36095   0.36278   0.36379
 Alpha virt. eigenvalues --    0.36536   0.36655   0.36713   0.36850   0.37497
 Alpha virt. eigenvalues --    0.38014   0.38097   0.38924   0.39045   0.39650
 Alpha virt. eigenvalues --    0.39906   0.40348   0.40570   0.40884   0.41230
 Alpha virt. eigenvalues --    0.41625   0.41768   0.42488   0.43118   0.43525
 Alpha virt. eigenvalues --    0.43828   0.44723   0.47329   0.47585   0.47683
 Alpha virt. eigenvalues --    0.48507   0.49111   0.49752   0.49918   0.50134
 Alpha virt. eigenvalues --    0.50483   0.50826   0.50975   0.51302   0.51383
 Alpha virt. eigenvalues --    0.51479   0.52010   0.52127   0.52244   0.52575
[...]
 0078,-0.00000080,0.00000104,0.00000059,-0.00000259,-0.00000033,-0.0000
 0114,-0.00000027,-0.00002076,0.00028452,0.00010819,-0.00223508,-0.0007
 8071,0.00029542,0.04153300,-0.00000797,0.00001930,-0.00000171,0.000012
 23,-0.00003107,0.00000859,-0.00000361,0.00001362,0.00000266,0.00000233
 ,-0.00000283,-0.00000520,-0.00000154,-0.00000013,-0.00000116,-0.000001
 36,0.00000011,-0.00000218,-0.00000046,0.00000119,0.00000093,0.00000047
 ,-0.00000113,-0.00000276,-0.00000655,-0.00000284,-0.00000266,0.0000003
 3,0.00000328,-0.00000134,-0.00000082,-0.00000075,-0.00000086,0.0000014
 5,0.00000147,-0.00000051,0.00000060,0.00000021,-0.00000038,0.00000047,
 0.00000350,0.00000333,0.00000916,0.00001881,-0.00000846,0.00000231,-0.
 00000362,0.00001171,0.00002871,0.00000802,-0.00003528,0.00000195,-0.00
 000149,-0.00000148,-0.00000789,-0.00000277,0.00000294,-0.00000135,-0.0
 0000009,0.00000237,-0.00000107,0.00000209,-0.00000405,-0.00000790,0.00
 000619,0.00000143,-0.00005522,0.00001505,-0.00001282,0.00000842,-0.000
 00315,-0.00000205,0.00000765,-0.00000278,0.00000315,-0.00000099,0.0000
 0064,-0.00000105,0.00000111,0.00000496,-0.00000711,0.00011003,-0.00004
 507,0.00006273,0.00017467,-0.00053170,0.00021133,-0.00026224,0.0000329
 6,-0.00022646,0.00002388,-0.00000313,0.00010053,0.00001945,0.00001732,
 -0.00005077,-0.00000107,-0.00001329,-0.00000937,0.00001492,-0.00000906
 ,-0.00008480,0.00000582,-0.00009197,0.00004612,-0.00017731,-0.00002814
 ,-0.00011750,-0.00000713,0.00000824,-0.00010328,-0.00006916,-0.0000039
 5,0.00003599,0.00001477,0.00000413,0.00000088,-0.00000788,-0.00000875,
 0.00000419,0.00002054,-0.00000999,0.00000356,0.00000411,-0.00000358,-0
 .00000126,0.00002743,0.00000620,-0.00000281,0.00004779,-0.00002703,-0.
 00000639,0.00001661,-0.00001157,0.00000828,0.00000610,-0.00000381,0.00
 001199,-0.00001706,-0.00000371,0.00001159,-0.00000185,0.00000127,0.000
 00162,-0.00002745,0.00000203,-0.00002508,-0.00020386,0.00042006,0.0003
 1517,0.00150618,-0.00025676,0.00364050,0.00315578,-0.01294751,-0.00814
 731,0.06154955,-0.31866944,-0.05990436,0.00239788,-0.00483799,0.001809
 95,0.00177631,0.00208977,-0.00136096,-0.00000123,-0.00000148,-0.000002
 29,0.00000034,0.00000026,0.00000092,-0.00000070,-0.00000010,-0.0000010
 8,-0.00000027,-0.00000009,-0.00000065,0.00000024,-0.00000052,-0.000000
 73,-0.00000120,0.00000229,0.00000305,-0.00000065,-0.00000222,-0.000002
 47,0.00000059,0.00000080,0.00000047,0.00000039,0.00000053,-0.00000010,
 0.00000059,0.00000067,-0.00000036,-0.00000028,-0.00000054,0.00000021,0
 .00001518,0.00000831,-0.00000208,-0.00000443,-0.00000221,-0.00000035,-
 0.00000404,0.00000059,-0.00000242,-0.00000285,0.00000049,-0.00000135,-
 0.00002402,-0.00000054,0.00000450,0.00000456,0.00000122,0.00000012,0.0
 0000287,0.00000225,-0.00000316,0.00000255,0.00000003,-0.00000335,0.000
 00013,-0.00000782,0.00000899,0.00000057,-0.00001605,-0.00000711,0.0000
 0459,-0.00001231,-0.00001229,-0.00000477,0.00000536,-0.00001506,-0.000
 02482,-0.00000562,0.00000583,0.00000696,0.00000202,-0.00000117,0.00000
 422,-0.00000232,0.00000096,0.00000486,-0.00000555,0.00000190,-0.000002
 95,0.00000131,0.00000273,0.00002029,0.00000732,0.00000263,-0.00000837,
 -0.00000106,0.,-0.00000384,-0.00000219,0.00000370,-0.00000274,-0.00000
 303,0.00000771,0.00000221,0.00000042,-0.00000212,0.00017413,-0.0007788
 1,-0.00034639,-0.00074959,0.00068108,0.00002689,-0.06798861,0.33449924
 ,-0.00000740,0.00001911,0.00000004,0.00001204,-0.00003091,0.00000783,-
 0.00000369,0.00001325,0.00000245,0.00000233,-0.00000262,-0.00000487,-0
 .00000154,-0.00000013,-0.00000121,-0.00000136,0.00000016,-0.00000203,-
 0.00000034,0.00000111,0.00000096,0.00000047,-0.00000092,-0.00000261,-0
 .00000722,-0.00000316,-0.00000231,0.00000080,0.00000330,-0.00000077,-0
 .00000112,-0.00000135,-0.00000005,0.00000159,0.00000156,-0.00000045,0.
 00000055,0.00000022,-0.00000005,0.00000068,0.00000320,0.00000364,0.000
 00130,0.00001422,-0.00001066,0.00000330,0.00000690,0.00000125,0.000035
 15,0.00003252,-0.00002348,-0.00000518,-0.00000719,0.00000035,-0.000006
 59,-0.00000631,0.00000233,0.00000022,0.00000014,0.00000168,-0.00000234
 ,0.00000420,-0.00000403,-0.00000638,0.00000627,0.00000767,-0.00003871,
 0.00000492,-0.00002450,0.00000168,-0.00000469,-0.00000028,0.00001115,0
 .00000056,-0.00000033,0.00000193,-0.00000047,0.00000398,-0.00000263,0.
 00000339,-0.00000395,-0.00001034,-0.00004986,0.00014305,0.00030638,-0.
 00120322,0.00063061,0.00011748,-0.00026282,-0.00052673,-0.00002998,0.0
 0002135,-0.00026566,-0.00002690,0.00009817,0.00008768,-0.00001289,0.00
 002674,-0.00012852,0.00001894,-0.00012984,-0.00002522,0.00003233,-0.00
 006565,0.00014157,0.00001924,0.00024574,0.00040110,-0.00000609,0.00000
 478,-0.00000212,0.00001267,-0.00001268,0.00002151,0.00000609,-0.000000
 29,-0.00000103,-0.00000132,-0.00000160,0.00000151,0.00000086,-0.000001
 26,0.00000024,0.00000127,-0.00000248,-0.00000016,0.00000654,0.00000249
 ,-0.00000095,0.00003909,0.00001244,0.00000017,-0.00003975,0.00000543,-
 0.00000662,0.00000764,0.00000321,-0.00000948,0.00000142,-0.00000315,0.
 00000713,-0.00000013,-0.00000002,0.00000540,-0.00000489,-0.00000687,0.
 00002821,0.00001727,-0.00020007,-0.00098792,-0.00134257,0.00271988,-0.
 00333738,-0.00491430,0.02266608,0.00869051,0.01131445,-0.05856447,-0.0
 7148176,0.00649399,-0.02967468,-0.00169260,-0.00102489,-0.00055424,-0.
 00530565,-0.00000164,-0.00000139,-0.00000269,0.00000026,0.00000028,0.0
 0000076,-0.00000063,-0.00000014,-0.00000099,-0.00000025,-0.00000006,-0
 .00000055,0.00000022,-0.00000047,-0.00000072,-0.00000123,0.00000205,0.
 00000287,-0.00000042,-0.00000288,-0.00000197,0.00000077,0.00000111,0.0
 0000049,0.00000022,0.00000036,-0.00000003,0.00000052,0.00000062,-0.000
 00016,-0.00000035,-0.00000052,0.00000035,0.00001325,0.00001372,0.00000
 022,-0.00000403,-0.00000137,0.00000012,-0.00000377,0.00000083,-0.00000
 203,-0.00000277,0.00000002,-0.00000182,-0.00001522,0.00000612,0.000000
 73,0.00000420,0.,-0.00000108,0.00000268,0.00000214,-0.00000248,0.00000
 201,0.00000071,-0.00000250,0.00000381,-0.00001155,0.00000359,0.0000034
 1,-0.00000674,-0.00000251,0.00000287,-0.00002125,-0.00000955,-0.000002
 24,0.00000922,-0.00000733,-0.00000443,-0.00000294,-0.00000208,0.000000
 54,0.00000014,0.00000009,0.00000028,-0.00000040,0.00000018,0.00000072,
 -0.00000047,0.00000009,-0.00000048,-0.00000068,0.00000002,0.00000629,0
 .00000057,0.00000200,0.00000058,-0.00000062,-0.00000028,0.00000061,0.0
 0000036,0.00000031,-0.00000032,0.00000050,-0.00000033,0.00000128,-0.00
 000237,0.00000072,-0.00024784,0.00108253,0.00028257,0.00042598,-0.0005
 8931,0.00091160,-0.01161418,0.06408713,0.07145705,-0.00001846,0.000018
 99,-0.00000232,0.00000594,-0.00004176,0.00001537,-0.00000556,0.0000181
 3,0.00000357,0.00000229,-0.00000315,-0.00000570,-0.00000198,-0.0000008
 1,-0.00000231,-0.00000235,0.00000064,-0.00000273,-0.00000063,0.0000013
 8,0.00000188,0.00000154,-0.00000310,-0.00000343,-0.00000413,-0.0000033
 5,0.00000194,-0.00002508,0.00001481,0.00000112,-0.00000032,-0.00000355
 ,-0.00000220,0.00000171,0.00000017,0.00000003,-0.00000072,-0.00000015,
 -0.00000183,0.00000096,0.00000319,0.00000427,-0.00007276,0.00004230,0.
 00001364,0.00003303,0.00018362,-0.00006466,0.00011885,-0.00034559,-0.0
 0030304,-0.00010927,0.00000067,0.00004460,-0.00000258,-0.00001812,0.00
 005410,0.00001429,0.00001653,-0.00002804,-0.00003147,-0.00002354,0.000
 01316,0.00006954,-0.00018621,0.00011285,-0.00009348,0.00008711,0.00026
 178,-0.00019253,-0.00002460,-0.00005540,0.00003094,0.00000647,-0.00003
 457,0.00001788,-0.00001521,0.00004025,-0.00002805,0.00000453,-0.000006
 97,0.00034461,-0.00006042,-0.00020307,-0.00187482,-0.00052555,-0.00015
 493,-0.00027112,-0.00009336,0.00002875,-0.00020193,-0.00005924,-0.0000
 1781,0.00005228,0.00000168,0.00002568,-0.00002694,0.00001691,-0.000002
 54,0.00001227,-0.00000561,0.00001200,0.00015040,0.00004158,-0.00002657
 ,-0.00002338,0.00011987,-0.00030069,0.00030909,0.00012858,-0.00001241,
 0.00003753,-0.00003924,0.00004138,-0.00001047,-0.00000942,0.00000185,0
 .00000163,0.00000647,-0.00000075,-0.00001255,0.00000081,0.00000167,0.0
 0000473,-0.00000599,-0.00000170,-0.00000552,0.00001244,0.00000208,-0.0
 0007002,0.00004515,-0.00002588,-0.00000105,-0.00000959,-0.00001436,0.0
 0000018,0.00000302,-0.00000592,0.00000717,0.00000320,-0.00000260,-0.00
 000122,-0.00000015,-0.00000571,0.00002836,-0.00001949,-0.00000548,0.00
 393535,0.00178360,0.00030165,-0.00075239,-0.00001136,0.00034580,0.0088
 5268,0.00169605,-0.00037498,0.00525485,0.00054878,0.00055930,-0.051275
 87,0.04316867,-0.04506564,0.00192144,0.00306877,-0.00499793,-0.0000021
 8,-0.00000212,-0.00000256,0.00000061,0.00000080,0.00000080,-0.00000086
 ,-0.00000015,-0.00000127,-0.00000026,0.00000005,-0.00000084,0.00000034
 ,-0.00000054,-0.00000089,-0.00000096,0.00000328,0.00000375,0.00002771,
 -0.00001010,-0.00000617,-0.00000060,0.00000122,-0.00000002,0.00000062,
 0.00000073,-0.00000009,0.00000077,0.00000076,-0.00000058,0.00000012,-0
 .00000033,-0.00000008,-0.00000872,-0.00001823,0.00000605,0.00000489,-0
 .00000256,-0.00000094,-0.00000081,-0.00000060,0.00000132,0.00000489,0.
 00000037,-0.00000079,-0.00000710,0.00001915,0.00000823,0.00001128,0.00
 000766,-0.00000015,0.00000495,0.00000154,-0.00000545,0.00000447,0.0000
 0144,-0.00000320,0.00000286,0.00000087,-0.00000380,-0.00000316,0.00000
 232,0.00000332,-0.00000996,0.00000030,0.00000445,0.00001559,0.00000143
 ,0.00001259,0.00000796,0.00000058,-0.00000545,-0.00000262,-0.00000095,
 -0.00000007,-0.00000140,0.00000075,-0.00000051,-0.00000035,0.00000112,
 -0.00000209,0.00000024,-0.00000121,0.00000028,-0.00000384,-0.00000318,
 0.00000160,0.00000279,0.00000021,0.00000006,0.00000142,0.00000006,-0.0
 0000104,0.00000174,0.00000285,-0.00000287,-0.00000231,0.00000223,0.000
 00044,-0.00110882,-0.00025037,0.00006905,0.00006504,-0.00001937,0.0000
 5826,-0.00547367,-0.00149718,0.00045896,0.04037641,0.00004388,-0.00011
 301,0.00001490,-0.00007611,0.00019856,-0.00005430,0.00002527,-0.000088
 07,-0.00001540,-0.00001414,0.00001806,0.00003325,0.00000950,0.00000100
 ,0.00000752,0.00000862,-0.00000084,0.00001332,0.00000213,-0.00000692,-
 0.00000624,-0.00000133,0.00000623,0.00001680,0.00004015,0.00001918,0.0
 0001074,-0.00001100,-0.00002037,0.00000592,0.00000556,0.00000429,0.000
 00134,-0.00000795,-0.00000857,0.00000346,-0.00000487,-0.00000164,0.000
 00176,-0.00000422,-0.00002029,-0.00001990,-0.00004500,-0.00020011,-0.0
 0000183,-0.00013924,0.00008190,-0.00014453,-0.00044685,0.00022542,-0.0
 0024064,-0.00014340,-0.00012450,0.00014142,0.00008494,0.00008264,-0.00
 004515,-0.00001064,0.00001633,-0.00003719,-0.00000696,0.00001562,-0.00
 000846,0.00016792,-0.00000234,-0.00010231,0.00025912,0.00052098,-0.000
 19783,0.00011042,-0.00005706,0.00009441,-0.00011771,0.00004092,-0.0000
 5867,0.00001042,0.00000562,-0.00002212,-0.00002164,0.00001632,-0.00000
 758,0.00000362,0.00007504,-0.00002127,-0.00048774,0.00037391,0.0012471
 6,-0.00008000,0.00003759,-0.00003592,-0.00004758,0.00002897,0.00008038
 ,-0.00001261,0.00007092,-0.00008177,0.00001060,-0.00008439,-0.00004087
 ,0.00000611,-0.00002936,-0.00000542,0.00003816,0.00004380,0.00011592,0
 .00015761,-0.00048104,0.00149404,0.00009946,-0.00026617,-0.00022662,-0
 .00003178,-0.00006851,0.00010276,0.00000593,-0.00000292,0.00000221,-0.
 00000092,-0.00001517,0.00000452,0.00001765,-0.00000763,0.00000308,0.00
 001033,-0.00000857,-0.00000329,0.00004492,0.00002088,0.00000164,0.0001
 2451,0.00001418,-0.00002748,-0.00003308,-0.00001131,-0.00000617,0.0000
 1244,0.00000233,-0.00000202,-0.00002145,-0.00000702,0.00001835,0.00000
 814,0.00000359,0.00000341,-0.00003138,-0.00001416,0.00002466,0.0016597
 9,-0.00370802,-0.00339073,-0.00018320,-0.00027554,-0.00074457,0.001829
 40,0.00070189,-0.00241740,-0.00178668,0.00965756,-0.01016591,0.0430448
 0,-0.17683696,0.13771320,0.00551945,-0.01336858,0.02256111,0.00000892,
 0.00000902,0.00001248,-0.00000243,-0.00000122,-0.00000575,0.00000422,0
 .00000076,0.00000651,0.00000161,0.00000051,0.00000405,-0.00000171,0.00
 000322,0.00000497,0.00000729,-0.00001306,-0.00001935,0.00001311,0.0000
 2316,0.00000102,-0.00000306,-0.00000297,-0.00000283,-0.00000222,-0.000
 00301,0.00000037,-0.00000342,-0.00000409,0.00000219,0.00000224,0.00000
 315,-0.00000098,0.00002414,0.00000209,-0.00002557,0.00002653,-0.000000
 38,-0.00000730,0.00002114,0.00000233,0.00000842,0.00000719,0.00000022,
 0.00000917,-0.00003263,-0.00000374,-0.00002296,-0.00001985,-0.00000790
 ,-0.00000180,-0.00001723,-0.00000574,0.00000969,-0.00000336,0.00000392
 ,0.00001277,0.00000310,-0.00000458,0.00001432,0.00000163,-0.00000966,-
 0.00001336,-0.00000149,-0.00000899,-0.00001427,-0.00000378,0.00001669,
 -0.00005104,-0.00001946,-0.00000383,0.00000349,0.00000747,0.00000190,-
 0.00000157,0.00000450,-0.00000178,0.00000173,0.00000663,-0.00000689,0.
 00000144,-0.00000409,0.00000179,0.00000332,0.00001859,0.00000420,0.000
 00421,-0.00000742,-0.00000125,-0.00000017,-0.00000302,-0.00000200,0.00
 000318,-0.00000262,-0.00000265,0.00000698,0.00000264,-0.00000232,-0.00
 000154,-0.00026154,-0.00001680,0.00016302,-0.00011568,0.00033218,-0.00
 047197,-0.00147095,0.00050698,0.00030429,-0.04777836,0.18273607,0.0000
 2623,-0.00007687,0.00000557,-0.00004985,0.00013923,-0.00001009,0.00001
 674,-0.00006055,-0.00000910,-0.00001081,0.00001234,0.00002186,0.000006
 55,0.00000074,0.00000558,0.00000646,-0.00000060,0.00000962,0.00000174,
 -0.00000638,-0.00000476,-0.00000211,0.00000545,0.00001383,0.00003498,0
 .00001161,0.00001539,-0.00000315,-0.00000476,-0.00000006,0.00000446,0.
 00000104,0.00000374,-0.00000658,-0.00000521,0.00000150,-0.00000100,-0.
 00000136,0.00000221,-0.00000526,-0.00001292,-0.00001296,-0.00005082,0.
 00009349,0.00008432,-0.00005490,-0.00012234,0.00009515,-0.00042180,-0.
 00065207,-0.00111342,0.00021503,0.00016327,0.00014459,0.00000007,0.000
 09072,-0.00004403,-0.00000132,-0.00000739,0.00000970,0.00000692,0.0000
 2271,0.00000010,0.00013698,-0.00008891,0.00006424,0.00050342,-0.000438
 37,-0.00118949,-0.00023921,0.00006840,0.00018411,-0.00003969,0.0000871
 7,-0.00005052,0.00001154,-0.00001553,0.00001448,-0.00002815,0.00000878
 ,0.00000221,0.00004056,-0.00113917,-0.00143456,0.00017859,-0.00017671,
 -0.00035804,-0.00005887,0.00036775,0.00011574,0.00001031,0.00007962,0.
 00019864,0.00000813,-0.00006633,-0.00004051,0.00000991,-0.00001284,0.0
 0009103,-0.00002011,0.00009318,0.00000892,-0.00000609,-0.00005696,-0.0
 0012087,0.00011523,-0.00055155,0.00023369,-0.00000343,-0.00009768,-0.0
 0000963,0.00002147,0.00000145,0.00000077,-0.00000522,-0.00000352,-0.00
 000133,0.00000356,0.00000036,-0.00000113,-0.00000406,0.00000264,-0.000
 00092,0.00000059,0.00000158,-0.00000101,-0.00000495,-0.00000051,0.0000
 0207,0.00000214,0.00001075,-0.00000020,-0.00000357,0.00000267,-0.00000
 091,-0.00000234,0.00000082,-0.00000313,0.00000244,0.00000080,-0.000003
 10,0.00000232,-0.00000067,-0.00000014,0.00000336,0.00000387,0.00000919
 ,0.00008764,-0.00175057,0.00014619,0.00020638,-0.00060805,-0.00005727,
 -0.00017523,-0.00334075,-0.00370682,-0.00650732,0.02091791,-0.01586694
 ,-0.04516252,0.13710527,-0.21163613,0.00173106,-0.00568784,0.00832302,
 0.00000483,0.00000632,0.00000792,-0.00000130,-0.00000112,-0.00000394,0
 .00000302,0.00000049,0.00000457,0.00000127,0.00000032,0.00000291,-0.00
 000126,0.00000227,0.00000348,0.00000645,-0.00001046,-0.00001218,-0.000
 00022,-0.00000447,0.00002290,-0.00000242,-0.00000372,-0.00000264,-0.00
 000131,-0.00000215,0.00000029,-0.00000253,-0.00000286,0.00000144,0.000
 00128,0.00000165,-0.00000071,-0.00000793,0.00001803,-0.00001072,0.0000
 1492,-0.00000427,-0.00001391,0.00001515,0.00000127,0.00000599,0.000007
 48,-0.00000282,0.00000319,0.00000913,0.00000908,-0.00001677,-0.0000135
 3,-0.00001086,-0.00001037,-0.00001278,-0.00000531,0.00000849,-0.000004
 78,-0.00000216,0.00000754,-0.00000222,0.00001118,-0.00000342,-0.000001
 70,0.00000703,0.00000385,-0.00000135,0.00001123,0.00000744,-0.00000206
 ,0.00001414,0.00002165,0.00000783,0.00000328,-0.00000030,-0.00000141,-
 0.00000039,0.00000019,-0.00000084,0.00000073,-0.00000001,-0.00000102,0
 .00000091,-0.00000045,0.00000059,0.00000014,-0.00000020,-0.00000705,-0
 .00000192,-0.00000087,0.00000163,0.00000046,0.00000009,0.00000071,0.00
 000042,-0.00000093,0.00000055,0.00000007,-0.00000150,-0.00000034,-0.00
 000067,0.00000053,0.00003999,0.00015890,0.00000372,-0.00031833,0.00094
 421,-0.00089174,0.00048997,0.00007668,0.00103786,0.04925315,-0.1455228
 7,0.22569622||0.00000115,0.00000053,0.00000604,-0.00000204,0.00000600,
 -0.00000293,-0.00000216,0.00000022,0.00000107,0.00000188,0.00000481,-0
 .00000296,0.00000194,-0.00000062,-0.00000106,0.00000011,-0.00000027,0.
 00000067,0.00000022,-0.00000035,-0.00000183,0.00000276,0.00000228,-0.0
 0000174,0.00000551,-0.00000587,0.00000204,-0.00000329,0.00000342,-0.00
 000015,-0.00000094,0.00000188,0.00000119,-0.00000012,-0.00000060,0.000
 00181,-0.00000161,0.00000037,0.00000017,-0.00000479,-0.00000133,0.0000
 0394,0.00000047,0.00000171,-0.00000699,-0.00000157,-0.00000616,0.00000
 692,-0.00000014,0.00000397,-0.00000315,-0.00000005,-0.00000086,-0.0000
 0019,0.00000310,0.00000016,-0.00000195,-0.00000014,0.00000046,-0.00000
 066,0.00000102,0.00000294,0.00000056,0.00000288,-0.00000625,0.00000705
 ,-0.00000242,0.00000406,-0.00000266,0.00000358,0.00000140,0.00000018,-
 0.00000372,-0.00000106,0.00000144,-0.00000212,0.00000179,-0.00000067,0
 .00000487,0.00000267,0.00000101,-0.00000010,-0.00000376,0.00000056,-0.
 00000104,0.00000455,-0.00000426,0.00000013,-0.00000561,0.00000555,-0.0
 0000146,0.00000405,-0.00000418,-0.00000010,-0.00000106,-0.00000136,0.0
 0000085,0.00000146,0.00000124,0.00000024,0.00000140,-0.00000031,-0.000
 00036,-0.00000105,-0.00000264,0.00000158,-0.00000247,0.00000105,0.0000
 0236,-0.00000169,0.00000424,-0.00000607,0.00000185,-0.00000111,0.00000
 113,-0.00000058,-0.00000048,-0.00000024,0.00000050,0.00000079,0.000002
 08,0.00000077,-0.00000017,-0.00000158,-0.00000094,-0.00000042,0.000000
 82,0.00000054,-0.00000147,0.00000160,-0.00000121,-0.00000310,0.0000019
 2,-0.00000029,-0.00000069,-0.00000084,-0.00000182,-0.00000058,-0.00000
 205,-0.00000126,-0.00000169,0.00000151,-0.00000032,-0.00000032,-0.0000
 0065,-0.00000043,-0.00000203,-0.00000183,0.00000301,-0.00000531,-0.000
 00038,0.,0.00000121,-0.00000062,-0.00000143,-0.00000046,-0.00000040,-0
 .00000137,-0.00000115,-0.00000101,0.00000011,0.00000114,-0.00000042,-0
 .00000323,0.00000483,-0.00000043,-0.00000128,0.00000063,0.00000141,-0.
 00000160,-0.00000010,0.00000003,0.00000013,-0.00000004,0.00000108,0.00
 000096,-0.00000040,0.00000097,0.00000095,0.00000045,-0.00000100,-0.000
 00002,-0.00000158,-0.00000086,0.00000099,0.00000020,-0.00000016,0.0000
 0068,0.00000091,-0.00000074,0.00000111,0.00000197,-0.00000028,0.000000
 39,0.00000124,-0.00000298,-0.00000146,-0.00000063,0.00000039,-0.000000
 36,0.,-0.00000095,-0.00000002,-0.00000054,0.00000028,-0.00000223,-0.00
 000028,-0.00000016,0.00000002,0.00000077,0.00000070,0.00000196,-0.0000
 0016,0.00000085,0.00000193,-0.00000004,0.00000121,-0.00000066,0.000001
 51,0.00000096,0.00000071,0.00000307,0.00000085,-0.00000022,-0.00000068
 ,0.00000087,0.00000005,-0.00000139,0.00000164,-0.00000043,-0.00000019,
 0.00000093,0.00000004,0.00000055,0.00000047,0.00000013,0.00000009,-0.0
 0000025,0.00000037,-0.00000014,-0.00000004,-0.00000016,0.00000057,0.00
 000080,0.00000017,0.00000032,0.00000015,-0.00000123,-0.00000055,-0.000
 00038,-0.00000058,-0.00000104,0.00000011,-0.00000054,-0.00000116,0.000
 00023,-0.00000168,-0.00000046,-0.00000099,-0.00000181,-0.00000063,-0.0
 0000088,-0.00000039,0.00000054,-0.00000082,0.00000040,-0.00000003,-0.0
 0000109,0.00000016,0.00000001,-0.00000098,-0.00000063,0.00000120,-0.00
 000040,-0.00000085,0.|||@


 THE PROGRESS OF RIVERS TO THE SEA IS NOT AS RAPID
 AS THAT OF MAN TO ERROR.
                                              -- VOLTAIRE
 Job cpu time:       0 days 14 hours 13 minutes 33.0 seconds.
 File lengths (MBytes):  RWF=  16523 Int=      0 D2E=      0 Chk=    121 Scr=      1
 Normal termination of Gaussian 09 at Sat Jun 29 14:04:05 2024.
